[Molden Format]
[Atoms] (Angs)
  C      1    6     -0.00714236     -1.70213747     -0.00000000
  H      2    1     -2.06882847     -1.44022412      0.00000000
  H      3    1     -0.12337987     -2.77567521      0.00000000
  H      4    1      0.04651892      1.98813947     -0.00000000
  C      5    6     -1.21953563      0.40211669      0.00000000
  O      6    8     -2.25921553      1.03043814      0.00000000
  C      7    6      1.28797806      0.34644937     -0.00000000
  O      8    8      2.31273661      1.00537216     -0.00000000
  N      9    7      0.03446295      0.97739857     -0.00000000
  N     10    7     -1.17287765     -0.98229824      0.00000000
  C     11    6      1.20107039     -1.10433419     -0.00000000
  H     12    1      2.11220096     -1.67699125     -0.00000000
[GTO]
1    0
S    6    1.000000
   4.56324000E+03    1.96665000E-03 
   6.82024000E+02    1.52306000E-02 
   1.54973000E+02    7.61269000E-02 
   4.44553000E+01    2.60801000E-01 
   1.30290000E+01    6.16462000E-01 
   1.82773000E+00    2.21006000E-01 
SP   3    1.000000
   2.09642000E+01    1.14660000E-01   4.02487000E-02 
   4.80331000E+00    9.19999000E-01   2.37594000E-01 
   1.45933000E+00   -3.03068000E-03   8.15854000E-01 
SP   1    1.000000
   4.83456000E-01    1.00000000E+00   1.00000000E+00 
SP   1    1.000000
   1.45585000E-01    1.00000000E+00   1.00000000E+00 
SP   1    1.000000
   4.38000000E-02    1.00000000E+00   1.00000000E+00 
D    1    1.000000
   6.26000000E-01    1.00000000E+00 

2    0
S    3    1.000000
   3.38650000E+01    2.54938000E-02 
   5.09479000E+00    1.90373000E-01 
   1.15879000E+00    8.52161000E-01 
S    1    1.000000
   3.25840000E-01    1.00000000E+00 
S    1    1.000000
   1.02741000E-01    1.00000000E+00 
S    1    1.000000
   3.60000000E-02    1.00000000E+00 
P    1    1.000000
   7.50000000E-01    1.00000000E+00 

3    0
S    3    1.000000
   3.38650000E+01    2.54938000E-02 
   5.09479000E+00    1.90373000E-01 
   1.15879000E+00    8.52161000E-01 
S    1    1.000000
   3.25840000E-01    1.00000000E+00 
S    1    1.000000
   1.02741000E-01    1.00000000E+00 
S    1    1.000000
   3.60000000E-02    1.00000000E+00 
P    1    1.000000
   7.50000000E-01    1.00000000E+00 

4    0
S    3    1.000000
   3.38650000E+01    2.54938000E-02 
   5.09479000E+00    1.90373000E-01 
   1.15879000E+00    8.52161000E-01 
S    1    1.000000
   3.25840000E-01    1.00000000E+00 
S    1    1.000000
   1.02741000E-01    1.00000000E+00 
S    1    1.000000
   3.60000000E-02    1.00000000E+00 
P    1    1.000000
   7.50000000E-01    1.00000000E+00 

5    0
S    6    1.000000
   4.56324000E+03    1.96665000E-03 
   6.82024000E+02    1.52306000E-02 
   1.54973000E+02    7.61269000E-02 
   4.44553000E+01    2.60801000E-01 
   1.30290000E+01    6.16462000E-01 
   1.82773000E+00    2.21006000E-01 
SP   3    1.000000
   2.09642000E+01    1.14660000E-01   4.02487000E-02 
   4.80331000E+00    9.19999000E-01   2.37594000E-01 
   1.45933000E+00   -3.03068000E-03   8.15854000E-01 
SP   1    1.000000
   4.83456000E-01    1.00000000E+00   1.00000000E+00 
SP   1    1.000000
   1.45585000E-01    1.00000000E+00   1.00000000E+00 
SP   1    1.000000
   4.38000000E-02    1.00000000E+00   1.00000000E+00 
D    1    1.000000
   6.26000000E-01    1.00000000E+00 

6    0
S    6    1.000000
   8.58850000E+03    1.89515000E-03 
   1.29723000E+03    1.43859000E-02 
   2.99296000E+02    7.07320000E-02 
   8.73771000E+01    2.40001000E-01 
   2.56789000E+01    5.94797000E-01 
   3.74004000E+00    2.80802000E-01 
SP   3    1.000000
   4.21175000E+01    1.13889000E-01   3.65114000E-02 
   9.62837000E+00    9.20811000E-01   2.37153000E-01 
   2.85332000E+00   -3.27447000E-03   8.19702000E-01 
SP   1    1.000000
   9.05661000E-01    1.00000000E+00   1.00000000E+00 
SP   1    1.000000
   2.55611000E-01    1.00000000E+00   1.00000000E+00 
SP   1    1.000000
   8.45000000E-02    1.00000000E+00   1.00000000E+00 
D    1    1.000000
   1.29200000E+00    1.00000000E+00 

7    0
S    6    1.000000
   4.56324000E+03    1.96665000E-03 
   6.82024000E+02    1.52306000E-02 
   1.54973000E+02    7.61269000E-02 
   4.44553000E+01    2.60801000E-01 
   1.30290000E+01    6.16462000E-01 
   1.82773000E+00    2.21006000E-01 
SP   3    1.000000
   2.09642000E+01    1.14660000E-01   4.02487000E-02 
   4.80331000E+00    9.19999000E-01   2.37594000E-01 
   1.45933000E+00   -3.03068000E-03   8.15854000E-01 
SP   1    1.000000
   4.83456000E-01    1.00000000E+00   1.00000000E+00 
SP   1    1.000000
   1.45585000E-01    1.00000000E+00   1.00000000E+00 
SP   1    1.000000
   4.38000000E-02    1.00000000E+00   1.00000000E+00 
D    1    1.000000
   6.26000000E-01    1.00000000E+00 

8    0
S    6    1.000000
   8.58850000E+03    1.89515000E-03 
   1.29723000E+03    1.43859000E-02 
   2.99296000E+02    7.07320000E-02 
   8.73771000E+01    2.40001000E-01 
   2.56789000E+01    5.94797000E-01 
   3.74004000E+00    2.80802000E-01 
SP   3    1.000000
   4.21175000E+01    1.13889000E-01   3.65114000E-02 
   9.62837000E+00    9.20811000E-01   2.37153000E-01 
   2.85332000E+00   -3.27447000E-03   8.19702000E-01 
SP   1    1.000000
   9.05661000E-01    1.00000000E+00   1.00000000E+00 
SP   1    1.000000
   2.55611000E-01    1.00000000E+00   1.00000000E+00 
SP   1    1.000000
   8.45000000E-02    1.00000000E+00   1.00000000E+00 
D    1    1.000000
   1.29200000E+00    1.00000000E+00 

9    0
S    6    1.000000
   6.29348000E+03    1.96979000E-03 
   9.49044000E+02    1.49613000E-02 
   2.18776000E+02    7.35006000E-02 
   6.36916000E+01    2.48937000E-01 
   1.88282000E+01    6.02460000E-01 
   2.72023000E+00    2.56202000E-01 
SP   3    1.000000
   3.06331000E+01    1.11906000E-01   3.83119000E-02 
   7.02614000E+00    9.21666000E-01   2.37403000E-01 
   2.11205000E+00   -2.56919000E-03   8.17592000E-01 
SP   1    1.000000
   6.84009000E-01    1.00000000E+00   1.00000000E+00 
SP   1    1.000000
   2.00878000E-01    1.00000000E+00   1.00000000E+00 
SP   1    1.000000
   6.39000000E-02    1.00000000E+00   1.00000000E+00 
D    1    1.000000
   9.13000000E-01    1.00000000E+00 

10    0
S    6    1.000000
   6.29348000E+03    1.96979000E-03 
   9.49044000E+02    1.49613000E-02 
   2.18776000E+02    7.35006000E-02 
   6.36916000E+01    2.48937000E-01 
   1.88282000E+01    6.02460000E-01 
   2.72023000E+00    2.56202000E-01 
SP   3    1.000000
   3.06331000E+01    1.11906000E-01   3.83119000E-02 
   7.02614000E+00    9.21666000E-01   2.37403000E-01 
   2.11205000E+00   -2.56919000E-03   8.17592000E-01 
SP   1    1.000000
   6.84009000E-01    1.00000000E+00   1.00000000E+00 
SP   1    1.000000
   2.00878000E-01    1.00000000E+00   1.00000000E+00 
SP   1    1.000000
   6.39000000E-02    1.00000000E+00   1.00000000E+00 
D    1    1.000000
   9.13000000E-01    1.00000000E+00 

11    0
S    6    1.000000
   4.56324000E+03    1.96665000E-03 
   6.82024000E+02    1.52306000E-02 
   1.54973000E+02    7.61269000E-02 
   4.44553000E+01    2.60801000E-01 
   1.30290000E+01    6.16462000E-01 
   1.82773000E+00    2.21006000E-01 
SP   3    1.000000
   2.09642000E+01    1.14660000E-01   4.02487000E-02 
   4.80331000E+00    9.19999000E-01   2.37594000E-01 
   1.45933000E+00   -3.03068000E-03   8.15854000E-01 
SP   1    1.000000
   4.83456000E-01    1.00000000E+00   1.00000000E+00 
SP   1    1.000000
   1.45585000E-01    1.00000000E+00   1.00000000E+00 
SP   1    1.000000
   4.38000000E-02    1.00000000E+00   1.00000000E+00 
D    1    1.000000
   6.26000000E-01    1.00000000E+00 

12    0
S    3    1.000000
   3.38650000E+01    2.54938000E-02 
   5.09479000E+00    1.90373000E-01 
   1.15879000E+00    8.52161000E-01 
S    1    1.000000
   3.25840000E-01    1.00000000E+00 
S    1    1.000000
   1.02741000E-01    1.00000000E+00 
S    1    1.000000
   3.60000000E-02    1.00000000E+00 
P    1    1.000000
   7.50000000E-01    1.00000000E+00 

[MO]
Sym=X
Ene= -0.071072
Spin=Alpha
Occup=1
     1    1.804082237751e-06
     2    4.652934256746e-06
     3   -2.706525482189e-06
     4    1.726321613592e-05
     5   -3.477915941419e-16
     6   -2.507930379380e-05
     7    4.091753924065e-05
     8   -3.936665309862e-06
     9    1.610299821197e-15
    10   -2.828081840350e-04
    11    6.693481200758e-05
    12    8.126336340988e-05
    13   -1.442596939672e-15
    14   -1.435713447615e-03
    15    6.874196565757e-04
    16   -3.292845482268e-05
    17   -8.136835227666e-15
    18    8.361118223863e-06
    19    7.535371291869e-17
    20    1.195389950793e-16
    21    2.339412420291e-06
    22    8.546517057058e-06
    23    9.039456519290e-06
    24    7.262995276196e-05
    25    1.105921351368e-04
    26    3.693082966316e-04
    27    5.357843770860e-06
    28   -1.095556245080e-05
    29   -7.152098118170e-17
    30   -1.245354589543e-05
    31    3.362269448601e-05
    32    1.769761239594e-05
    33    2.691430837244e-04
    34   -1.451690173822e-06
    35    2.657420636460e-06
    36    6.728148775128e-16
    37   -4.730945080288e-07
    38    7.094119939515e-05
    39    4.033579317762e-04
    40    1.178382790184e-03
    41    1.588649666687e-05
    42    6.350758422158e-06
    43    8.604104307067e-16
    44    2.541646553825e-06
    45   -8.047426638025e-05
    46   -5.185433797059e-05
    47    4.334602712201e-05
    48   -9.081317004717e-16
    49    3.122612622193e-04
    50   -3.347243505013e-04
    51    2.222048620862e-04
    52    4.112657087218e-15
    53    1.088430806952e-04
    54   -6.309228275423e-04
    55    2.931474030738e-04
    56   -4.611483526281e-15
    57    1.626137766663e-03
    58    9.853481346327e-04
    59   -7.814227563078e-04
    60   -6.670669252932e-15
    61   -4.421680695742e-05
    62   -8.670669920207e-16
    63   -6.150489668938e-16
    64    9.168151075922e-05
    65   -1.756745396211e-04
    66    5.514379418669e-01
    67    4.717095845528e-01
    68    1.563491188090e-03
    69   -9.396343141472e-04
    70    2.117897163970e-16
    71    5.606807606606e-03
    72   -6.289392968566e-04
    73    3.591394501403e-04
    74   -3.078954666541e-16
    75   -1.545091525369e-03
    76    9.213379080007e-05
    77   -7.585668285838e-05
    78   -1.002584214255e-15
    79    1.327145155130e-03
    80   -6.581184721660e-06
    81   -1.648508632851e-05
    82    2.019217898852e-15
    83   -9.383758026521e-05
    84   -3.047400405039e-16
    85    2.650225480699e-16
    86   -4.480177744948e-05
    87    7.425264434388e-05
    88   -2.468466898755e-07
    89    2.139669569131e-06
    90    1.781366376147e-06
    91    2.390344989751e-05
    92   -2.416849925229e-16
    93   -4.267156829058e-05
    94    4.100040924862e-05
    95    2.152767553608e-05
    96    2.640764979668e-15
    97   -9.324047699062e-05
    98    2.181250285603e-04
    99    1.620038841634e-04
   100   -3.607983541041e-15
   101   -1.459783895993e-03
   102    1.529445761147e-03
   103    5.153095815141e-04
   104   -1.746518724263e-14
   105    2.927566023700e-05
   106   -2.647204007473e-17
   107    3.883940449835e-17
   108   -7.551885970924e-06
   109    4.403628880403e-06
   110    2.660012684175e-05
   111    5.016318502484e-05
   112    2.836107104114e-07
   113   -3.003178687782e-05
   114    1.456625075333e-15
   115   -1.953264869025e-04
   116    1.627794672183e-06
   117   -3.514652150530e-05
   118   -1.187981046323e-15
   119   -2.567221250263e-04
   120    5.157827631942e-05
   121   -8.867343309453e-06
   122   -1.873350299750e-15
   123   -8.378937828427e-04
   124   -4.185969244011e-05
   125    5.861945021085e-06
   126    7.058189993885e-15
   127    4.819488978040e-06
   128    4.865343898368e-16
   129    1.063634785258e-15
   130   -5.352596302862e-07
   131   -2.348904351300e-06
   132    2.029977787672e-05
   133    3.666904154166e-05
   134   -1.847751625704e-06
   135   -2.519562908061e-05
   136    4.612521435469e-16
   137   -1.414892438623e-04
   138   -4.853358780181e-05
   139   -2.750892280719e-05
   140   -2.408382100985e-17
   141    5.418574324833e-05
   142   -3.276466047722e-05
   143   -3.469191080914e-04
   144   -2.142566679317e-15
   145   -3.601055920997e-04
   146    3.603713260747e-04
   147   -6.225804023388e-04
   148    1.220749777463e-14
   149   -1.881155208573e-06
   150    2.121539556319e-16
   151   -7.184171464897e-16
   152    2.162563403091e-05
   153    9.515520490500e-06
   154    9.219620035160e-06
   155    1.742618781363e-05
   156    6.118527449728e-06
   157   -1.484935779655e-05
   158   -6.707021037658e-16
   159   -8.077828248265e-05
   160   -1.148837403145e-05
   161    1.082914381272e-05
   162    9.445997332219e-17
   163    1.927592731977e-04
   164    2.515173612437e-04
   165    3.091494265391e-05
   166   -8.993271595722e-16
   167   -1.003339361176e-03
   168    1.199515466724e-04
   169   -6.982501540867e-04
   170    7.724997413527e-15
   171   -5.214640180761e-06
   172   -2.608178244858e-16
   173    2.704941720150e-16
   174   -1.420996257205e-05
   175   -8.022627294645e-06
   176    1.665931020491e-05
   177    2.823697736291e-05
   178   -1.885741285276e-05
   179   -9.550734361783e-06
   180   -1.368372412708e-15
   181   -7.309335030672e-05
   182   -3.041626314820e-05
   183   -1.023449484443e-05
   184    4.901193630487e-16
   185   -3.006675100593e-04
   186   -4.502176534604e-05
   187   -1.905449286190e-05
   188   -7.837212344529e-16
   189   -9.677033699945e-05
   190   -1.325722626145e-03
   191    7.908799675201e-04
   192    1.490651091711e-14
   193    1.609574271865e-05
   194   -3.782202369230e-17
   195   -3.634129492165e-16
   196    4.519509299211e-06
   197   -5.460351397898e-06
   198   -7.706961605553e-06
   199   -2.940942760605e-05
   200    1.950070199702e-04
   201    1.689343658735e-03
   202    6.240655034670e-06
   203   -1.707393129497e-06
   204    8.226536790248e-16
Sym=X
Ene= 0.071072
Spin=Alpha
Occup=0
     1    4.682211380721e-07
     2   -7.056037309738e-07
     3    2.243050146559e-06
     4   -5.580948038873e-08
     5    5.336390545976e-16
     6    1.073309341247e-05
     7   -7.776119884714e-06
     8    2.855956724005e-06
     9   -9.188240152271e-16
    10   -6.365771939778e-04
    11   -1.349325673425e-04
    12   -2.785043853646e-04
    13    5.654706316469e-15
    14    1.110364824231e-04
    15    3.290562527942e-04
    16   -6.561444264051e-04
    17   -2.184485665971e-14
    18    1.164188576499e-06
    19    8.875523178062e-16
    20    9.413800752499e-16
    21   -4.536168383381e-06
    22    6.860249000225e-06
    23    1.985141752001e-07
    24    8.133444310862e-06
    25   -3.479095603360e-05
    26    7.714466707811e-05
    27   -3.243280692123e-06
    28    1.173505338422e-06
    29   -6.540134435835e-16
    30   -1.816312985896e-06
    31    2.672332521912e-06
    32   -1.470641447895e-04
    33   -3.444322821124e-04
    34    5.922694148097e-06
    35    3.633014478787e-07
    36    9.208134745733e-16
    37    3.197438254924e-06
    38    7.515025665273e-05
    39    8.873579669008e-05
    40    8.734634240081e-05
    41   -1.052556071897e-05
    42   -7.752430268389e-06
    43    4.359728803426e-16
    44   -4.640539536303e-07
    45    1.725092618874e-06
    46    6.032296205811e-06
    47    1.193415798204e-07
    48   -9.131966986621e-16
    49   -1.002325188510e-05
    50   -3.029221498776e-05
    51   -2.754695797361e-06
    52    2.274280079188e-15
    53   -3.125352067790e-04
    54   -1.681502600516e-04
    55    1.614539145736e-05
    56   -1.849784757909e-15
    57   -2.926531185265e-04
    58   -2.739668960027e-05
    59   -1.918890061141e-04
    60   -9.882324958285e-15
    61    4.614085524663e-06
    62   -3.451934106094e-16
    63    1.381409974276e-15
    64   -5.991776077899e-06
    65   -2.253147818430e-07
    66    2.078480011498e-06
    67    3.016038717238e-06
    68    5.327350635733e-07
    69   -1.677458099844e-07
    70    2.216675450084e-16
    71   -8.457243606293e-06
    72   -3.423664147894e-06
    73    5.786336924177e-07
    74    2.177866654985e-16
    75    2.329887645475e-05
    76    1.623468075886e-05
    77    2.396358185164e-06
    78   -2.450142615736e-15
    79   -2.858796140311e-04
    80   -1.503534798179e-04
    81    4.862230618580e-05
    82    3.084350627203e-15
    83    3.691685668706e-07
    84   -3.361232619969e-16
    85    2.076612588096e-16
    86    4.908920472620e-07
    87   -1.282391698120e-08
    88    8.755030780182e-06
    89   -7.601488295237e-05
    90    4.737594789262e-05
    91    3.737400048986e-05
    92   -1.065418056011e-15
    93    3.028489471956e-04
    94    3.648038690319e-04
    95    2.294819461722e-04
    96    1.630502202640e-15
    97   -2.214262197601e-04
    98    5.664859354014e-04
    99    5.020333647719e-04
   100    2.277618998813e-16
   101   -2.012197214744e-03
   102   -7.319944667978e-04
   103    4.087289168114e-04
   104    1.475358740114e-15
   105   -5.934374345418e-05
   106    9.605116721480e-16
   107   -6.644289476939e-16
   108    9.360834432186e-05
   109    2.039616686495e-04
   110    5.515046518680e-01
   111    4.716611621769e-01
   112   -1.614935273566e-03
   113   -1.019139883582e-03
   114    1.696362546610e-15
   115    5.497802033812e-03
   116    6.935421486983e-04
   117    4.661983192250e-04
   118   -2.522707109772e-15
   119   -1.350395890647e-03
   120   -1.324393562031e-04
   121   -1.036172210722e-04
   122    3.531563672805e-15
   123    1.281416686259e-03
   124    8.642733847198e-06
   125    3.348265820881e-05
   126   -6.215546719551e-15
   127   -1.239745444380e-04
   128    8.923564334234e-16
   129    9.515556079538e-16
   130   -5.111522774261e-05
   131   -7.626136932432e-05
   132    3.614552514477e-07
   133    2.244908516786e-06
   134   -1.179754532551e-05
   135    1.296114608214e-06
   136    6.353804282437e-16
   137   -3.865240691485e-05
   138    3.597897140786e-05
   139   -3.413912646538e-07
   140   -4.809735327548e-16
   141    3.571536495299e-04
   142   -8.231667499916e-05
   143   -2.939449618493e-04
   144    1.827169086281e-16
   145   -1.296097346210e-04
   146   -6.478708865438e-04
   147   -1.134476550311e-04
   148    2.463016822388e-15
   149   -9.748388137661e-06
   150    5.988491459214e-16
   151   -6.823998535586e-16
   152    2.355964365670e-05
   153   -1.326371993113e-05
   154   -2.306658741700e-09
   155    5.966866343850e-07
   156    9.318072955352e-08
   157    3.468166625843e-07
   158   -1.263091689962e-15
   159   -9.786572029669e-06
   160   -7.716764330817e-07
   161   -1.656192100698e-06
   162    2.864658179320e-15
   163    1.625261793166e-04
   164    8.265634221508e-05
   165    2.090742961221e-05
   166   -7.120806333054e-15
   167    2.482100980094e-04
   168   -3.435234345923e-05
   169    1.192970597606e-05
   170    1.840498404923e-14
   171    6.653270838259e-07
   172   -1.719596460969e-15
   173    1.360203121288e-16
   174    5.678898235712e-07
   175   -9.804385007143e-07
   176    7.646924271857e-07
   177    1.277465912535e-06
   178   -3.924419123824e-06
   179   -1.557713459736e-05
   180    6.003844148617e-16
   181   -2.956074551752e-05
   182    3.983245955209e-06
   183    8.447273540669e-05
   184   -5.796383120425e-16
   185    7.693353331755e-04
   186   -6.092759199305e-04
   187    1.704386306255e-04
   188   -4.330028381738e-15
   189    1.476701257355e-03
   190    9.685940895938e-05
   191    1.170440241747e-03
   192    1.413611369892e-14
   193   -5.939063349471e-06
   194    9.661451945279e-16
   195    9.736725495893e-16
   196   -3.508409487303e-05
   197    2.592515195873e-05
   198   -2.514133592280e-06
   199    1.355683704537e-04
   200    1.935034224747e-04
   201    3.718210120026e-04
   202   -2.072867171670e-05
   203    1.281450528652e-05
   204   -7.772448523099e-16
[5D]
