[Molden Format]
[Atoms] (Angs)
  C      1    6     -0.00714236     -1.70213747     -0.00000000
  H      2    1     -2.06882847     -1.44022412      0.00000000
  H      3    1     -0.12337987     -2.77567521      0.00000000
  H      4    1      0.04651892      1.98813947     -0.00000000
  C      5    6     -1.21953563      0.40211669      0.00000000
  O      6    8     -2.25921553      1.03043814      0.00000000
  C      7    6      1.28797806      0.34644937     -0.00000000
  O      8    8      2.31273661      1.00537216     -0.00000000
  N      9    7      0.03446295      0.97739857     -0.00000000
  N     10    7     -1.17287765     -0.98229824      0.00000000
  C     11    6      1.20107039     -1.10433419     -0.00000000
  H     12    1      2.11220096     -1.67699125     -0.00000000
[GTO]
1    0
S    6    1.000000
   4.56324000E+03    1.96665000E-03 
   6.82024000E+02    1.52306000E-02 
   1.54973000E+02    7.61269000E-02 
   4.44553000E+01    2.60801000E-01 
   1.30290000E+01    6.16462000E-01 
   1.82773000E+00    2.21006000E-01 
SP   3    1.000000
   2.09642000E+01    1.14660000E-01   4.02487000E-02 
   4.80331000E+00    9.19999000E-01   2.37594000E-01 
   1.45933000E+00   -3.03068000E-03   8.15854000E-01 
SP   1    1.000000
   4.83456000E-01    1.00000000E+00   1.00000000E+00 
SP   1    1.000000
   1.45585000E-01    1.00000000E+00   1.00000000E+00 
SP   1    1.000000
   4.38000000E-02    1.00000000E+00   1.00000000E+00 
D    1    1.000000
   6.26000000E-01    1.00000000E+00 

2    0
S    3    1.000000
   3.38650000E+01    2.54938000E-02 
   5.09479000E+00    1.90373000E-01 
   1.15879000E+00    8.52161000E-01 
S    1    1.000000
   3.25840000E-01    1.00000000E+00 
S    1    1.000000
   1.02741000E-01    1.00000000E+00 
S    1    1.000000
   3.60000000E-02    1.00000000E+00 
P    1    1.000000
   7.50000000E-01    1.00000000E+00 

3    0
S    3    1.000000
   3.38650000E+01    2.54938000E-02 
   5.09479000E+00    1.90373000E-01 
   1.15879000E+00    8.52161000E-01 
S    1    1.000000
   3.25840000E-01    1.00000000E+00 
S    1    1.000000
   1.02741000E-01    1.00000000E+00 
S    1    1.000000
   3.60000000E-02    1.00000000E+00 
P    1    1.000000
   7.50000000E-01    1.00000000E+00 

4    0
S    3    1.000000
   3.38650000E+01    2.54938000E-02 
   5.09479000E+00    1.90373000E-01 
   1.15879000E+00    8.52161000E-01 
S    1    1.000000
   3.25840000E-01    1.00000000E+00 
S    1    1.000000
   1.02741000E-01    1.00000000E+00 
S    1    1.000000
   3.60000000E-02    1.00000000E+00 
P    1    1.000000
   7.50000000E-01    1.00000000E+00 

5    0
S    6    1.000000
   4.56324000E+03    1.96665000E-03 
   6.82024000E+02    1.52306000E-02 
   1.54973000E+02    7.61269000E-02 
   4.44553000E+01    2.60801000E-01 
   1.30290000E+01    6.16462000E-01 
   1.82773000E+00    2.21006000E-01 
SP   3    1.000000
   2.09642000E+01    1.14660000E-01   4.02487000E-02 
   4.80331000E+00    9.19999000E-01   2.37594000E-01 
   1.45933000E+00   -3.03068000E-03   8.15854000E-01 
SP   1    1.000000
   4.83456000E-01    1.00000000E+00   1.00000000E+00 
SP   1    1.000000
   1.45585000E-01    1.00000000E+00   1.00000000E+00 
SP   1    1.000000
   4.38000000E-02    1.00000000E+00   1.00000000E+00 
D    1    1.000000
   6.26000000E-01    1.00000000E+00 

6    0
S    6    1.000000
   8.58850000E+03    1.89515000E-03 
   1.29723000E+03    1.43859000E-02 
   2.99296000E+02    7.07320000E-02 
   8.73771000E+01    2.40001000E-01 
   2.56789000E+01    5.94797000E-01 
   3.74004000E+00    2.80802000E-01 
SP   3    1.000000
   4.21175000E+01    1.13889000E-01   3.65114000E-02 
   9.62837000E+00    9.20811000E-01   2.37153000E-01 
   2.85332000E+00   -3.27447000E-03   8.19702000E-01 
SP   1    1.000000
   9.05661000E-01    1.00000000E+00   1.00000000E+00 
SP   1    1.000000
   2.55611000E-01    1.00000000E+00   1.00000000E+00 
SP   1    1.000000
   8.45000000E-02    1.00000000E+00   1.00000000E+00 
D    1    1.000000
   1.29200000E+00    1.00000000E+00 

7    0
S    6    1.000000
   4.56324000E+03    1.96665000E-03 
   6.82024000E+02    1.52306000E-02 
   1.54973000E+02    7.61269000E-02 
   4.44553000E+01    2.60801000E-01 
   1.30290000E+01    6.16462000E-01 
   1.82773000E+00    2.21006000E-01 
SP   3    1.000000
   2.09642000E+01    1.14660000E-01   4.02487000E-02 
   4.80331000E+00    9.19999000E-01   2.37594000E-01 
   1.45933000E+00   -3.03068000E-03   8.15854000E-01 
SP   1    1.000000
   4.83456000E-01    1.00000000E+00   1.00000000E+00 
SP   1    1.000000
   1.45585000E-01    1.00000000E+00   1.00000000E+00 
SP   1    1.000000
   4.38000000E-02    1.00000000E+00   1.00000000E+00 
D    1    1.000000
   6.26000000E-01    1.00000000E+00 

8    0
S    6    1.000000
   8.58850000E+03    1.89515000E-03 
   1.29723000E+03    1.43859000E-02 
   2.99296000E+02    7.07320000E-02 
   8.73771000E+01    2.40001000E-01 
   2.56789000E+01    5.94797000E-01 
   3.74004000E+00    2.80802000E-01 
SP   3    1.000000
   4.21175000E+01    1.13889000E-01   3.65114000E-02 
   9.62837000E+00    9.20811000E-01   2.37153000E-01 
   2.85332000E+00   -3.27447000E-03   8.19702000E-01 
SP   1    1.000000
   9.05661000E-01    1.00000000E+00   1.00000000E+00 
SP   1    1.000000
   2.55611000E-01    1.00000000E+00   1.00000000E+00 
SP   1    1.000000
   8.45000000E-02    1.00000000E+00   1.00000000E+00 
D    1    1.000000
   1.29200000E+00    1.00000000E+00 

9    0
S    6    1.000000
   6.29348000E+03    1.96979000E-03 
   9.49044000E+02    1.49613000E-02 
   2.18776000E+02    7.35006000E-02 
   6.36916000E+01    2.48937000E-01 
   1.88282000E+01    6.02460000E-01 
   2.72023000E+00    2.56202000E-01 
SP   3    1.000000
   3.06331000E+01    1.11906000E-01   3.83119000E-02 
   7.02614000E+00    9.21666000E-01   2.37403000E-01 
   2.11205000E+00   -2.56919000E-03   8.17592000E-01 
SP   1    1.000000
   6.84009000E-01    1.00000000E+00   1.00000000E+00 
SP   1    1.000000
   2.00878000E-01    1.00000000E+00   1.00000000E+00 
SP   1    1.000000
   6.39000000E-02    1.00000000E+00   1.00000000E+00 
D    1    1.000000
   9.13000000E-01    1.00000000E+00 

10    0
S    6    1.000000
   6.29348000E+03    1.96979000E-03 
   9.49044000E+02    1.49613000E-02 
   2.18776000E+02    7.35006000E-02 
   6.36916000E+01    2.48937000E-01 
   1.88282000E+01    6.02460000E-01 
   2.72023000E+00    2.56202000E-01 
SP   3    1.000000
   3.06331000E+01    1.11906000E-01   3.83119000E-02 
   7.02614000E+00    9.21666000E-01   2.37403000E-01 
   2.11205000E+00   -2.56919000E-03   8.17592000E-01 
SP   1    1.000000
   6.84009000E-01    1.00000000E+00   1.00000000E+00 
SP   1    1.000000
   2.00878000E-01    1.00000000E+00   1.00000000E+00 
SP   1    1.000000
   6.39000000E-02    1.00000000E+00   1.00000000E+00 
D    1    1.000000
   9.13000000E-01    1.00000000E+00 

11    0
S    6    1.000000
   4.56324000E+03    1.96665000E-03 
   6.82024000E+02    1.52306000E-02 
   1.54973000E+02    7.61269000E-02 
   4.44553000E+01    2.60801000E-01 
   1.30290000E+01    6.16462000E-01 
   1.82773000E+00    2.21006000E-01 
SP   3    1.000000
   2.09642000E+01    1.14660000E-01   4.02487000E-02 
   4.80331000E+00    9.19999000E-01   2.37594000E-01 
   1.45933000E+00   -3.03068000E-03   8.15854000E-01 
SP   1    1.000000
   4.83456000E-01    1.00000000E+00   1.00000000E+00 
SP   1    1.000000
   1.45585000E-01    1.00000000E+00   1.00000000E+00 
SP   1    1.000000
   4.38000000E-02    1.00000000E+00   1.00000000E+00 
D    1    1.000000
   6.26000000E-01    1.00000000E+00 

12    0
S    3    1.000000
   3.38650000E+01    2.54938000E-02 
   5.09479000E+00    1.90373000E-01 
   1.15879000E+00    8.52161000E-01 
S    1    1.000000
   3.25840000E-01    1.00000000E+00 
S    1    1.000000
   1.02741000E-01    1.00000000E+00 
S    1    1.000000
   3.60000000E-02    1.00000000E+00 
P    1    1.000000
   7.50000000E-01    1.00000000E+00 

[MO]
Sym=X
Ene= -0.487590
Spin=Alpha
Occup=1
     1   -2.271767770977e-15
     2   -3.214577970220e-15
     3   -2.729349931089e-17
     4    2.560696874144e-15
     5    1.275526444182e-01
     6    2.326420103598e-14
     7   -3.077267409856e-14
     8    2.270713460138e-15
     9    2.070096246013e-01
    10   -3.501252896980e-13
    11    1.534548553169e-13
    12   -3.180128899883e-14
    13    4.312277719824e-01
    14   -2.191453174740e-11
    15   -1.387782957942e-12
    16   -3.710327918131e-12
    17    6.713760935241e-01
    18   -1.052176626729e-14
    19   -2.372044353460e-02
    20   -7.990093238741e-03
    21    7.783907167310e-15
    22    1.399950831958e-15
    23    6.673601522750e-15
    24    3.352750805598e-14
    25    3.764932463802e-13
    26   -1.857611121966e-12
    27    1.639701827285e-14
    28    1.269426953940e-14
    29    8.208117154471e-04
    30    1.547567993342e-14
    31    4.289950905276e-14
    32    3.518541052731e-13
    33    3.098458270294e-12
    34   -5.815668024135e-16
    35    1.303583121926e-15
    36    1.502934289752e-02
    37   -1.639372814715e-15
    38   -6.639175820088e-14
    39    3.244678496114e-13
    40    7.082898830248e-13
    41   -1.023085133795e-15
    42   -9.185876451782e-16
    43    6.057457984789e-03
    44   -2.932473296400e-16
    45   -1.993416228617e-15
    46    1.091070949309e-14
    47   -1.170288073662e-14
    48   -1.158414789640e-01
    49   -9.766486414502e-15
    50   -8.352830536470e-15
    51    2.126151089624e-14
    52   -1.897753925663e-01
    53    9.001583889950e-14
    54   -1.880645213286e-14
    55   -5.125494896948e-13
    56   -3.730621354420e-01
    57    9.380942827100e-12
    58    8.545421925425e-13
    59   -3.488988269318e-12
    60   -2.154570301310e-01
    61    4.951196006391e-15
    62   -2.415640300761e-02
    63    2.124635453124e-02
    64    4.158680858845e-15
    65    7.886377607682e-16
    66    2.391649711366e-15
    67    1.627401479767e-15
    68   -1.834429877678e-15
    69    1.669994908705e-15
    70    9.130286628595e-02
    71   -1.203423451424e-15
    72   -1.437061706567e-14
    73   -5.074962301625e-17
    74    1.357867858574e-01
    75   -3.550968177127e-14
    76    3.484635508317e-14
    77    5.064292232080e-14
    78    2.017833461981e-01
    79    6.404244276224e-13
    80    2.833534450833e-13
    81   -2.442139494600e-13
    82    1.778072818463e-01
    83    4.096404425878e-15
    84   -2.505504232324e-03
    85    2.220761180578e-03
    86   -3.448331427444e-15
    87    3.464157596320e-15
    88    1.214779853609e-15
    89    5.370333479358e-15
    90    5.304213852650e-15
    91    5.052073548122e-15
    92    9.385617872345e-02
    93   -4.148032231834e-14
    94    5.638280803798e-15
    95    1.225880083118e-14
    96    1.643817076034e-01
    97    5.728916779773e-13
    98   -1.371922815554e-13
    99    1.489441816990e-13
   100    2.708680269018e-01
   101   -1.099849102473e-11
   102   -1.104707606673e-12
   103    2.455717204282e-12
   104   -2.093158562680e-01
   105    2.423138132045e-15
   106   -1.211269949134e-02
   107    4.310456921714e-02
   108    8.821173609423e-15
   109   -7.856781634460e-15
   110   -1.022064778716e-17
   111   -2.428870735602e-15
   112    1.440116548922e-14
   113   -9.061693628246e-15
   114   -2.231273978295e-02
   115    1.664938442304e-14
   116    1.778058115885e-14
   117    1.959147834435e-15
   118   -2.778372704279e-02
   119   -1.050294975291e-13
   120    3.617044949463e-14
   121   -3.781084562622e-14
   122   -5.691534660823e-02
   123    5.285103758210e-13
   124    2.182598431598e-13
   125    8.950683472478e-14
   126   -3.797353899888e-02
   127   -3.227143476010e-15
   128   -1.000250415687e-02
   129   -1.458684317594e-03
   130   -1.972574427518e-15
   131   -5.229018984701e-16
   132    4.361149350197e-15
   133    7.910162547974e-15
   134    7.405759563815e-15
   135   -2.133424723978e-14
   136    3.777436596567e-02
   137   -2.768999165732e-14
   138    1.168326976836e-14
   139   -3.638199061482e-14
   140    6.200207146895e-02
   141    3.153466510684e-14
   142   -1.581219169183e-13
   143    6.521810351926e-14
   144    7.477367444164e-02
   145   -2.537117153780e-12
   146    8.999776866888e-14
   147    3.697144767201e-13
   148    2.787614413562e-01
   149    1.100825781311e-14
   150    2.300043410891e-02
   151    4.514384470197e-03
   152    6.154493916468e-17
   153    9.412206555292e-15
   154    7.260510305890e-16
   155   -1.173772820175e-15
   156   -3.644311390917e-15
   157   -1.389063665167e-14
   158   -1.207117189245e-02
   159    1.003347220331e-14
   160   -1.366970419664e-14
   161   -2.928990611907e-14
   162   -1.872435846861e-02
   163   -2.049694317368e-13
   164    1.019829662684e-13
   165   -8.832491719208e-14
   166   -3.555457920848e-02
   167   -1.335075144776e-13
   168    1.998728685947e-12
   169   -2.292139553557e-12
   170   -7.214808024149e-02
   171    6.644592801767e-15
   172    1.105388510392e-02
   173   -2.388610541980e-02
   174   -1.049862586536e-14
   175    1.380681902108e-15
   176   -1.057044769196e-14
   177   -1.214209792522e-14
   178    4.491799948298e-15
   179   -2.256997504945e-14
   180   -1.153075562067e-01
   181    2.219532904474e-14
   182    6.119531409057e-16
   183    1.131152249020e-14
   184   -1.864608830023e-01
   185    2.820591403990e-13
   186    5.134748411714e-14
   187   -2.809530424239e-13
   188   -4.138966245407e-01
   189    2.315709845179e-11
   190   -1.403909273603e-12
   191    3.237294617343e-12
   192   -7.820599699454e-01
   193   -8.722288404871e-15
   194   -2.454328769055e-02
   195   -6.592621029758e-03
   196    9.116924309865e-15
   197    2.464977996473e-15
   198    2.793317982068e-15
   199   -1.427218462121e-14
   200   -5.293452218597e-13
   201   -8.684010635172e-13
   202   -2.842674813442e-15
   203   -2.568372729265e-16
   204   -1.847503116628e-02
Sym=X
Ene= 0.487590
Spin=Alpha
Occup=0
     1    5.128892403546e-15
     2    3.264382788375e-15
     3   -2.893953705755e-15
     4    1.642656133703e-14
     5   -1.749934407337e-02
     6   -1.384512430591e-14
     7    2.792692889173e-14
     8    4.914635109869e-14
     9   -3.223693117996e-02
    10    1.821213281043e-13
    11    1.573048607589e-14
    12    1.519935122428e-13
    13   -7.535190874631e-02
    14   -1.767770316148e-12
    15   -1.535171485255e-12
    16    8.344262276606e-13
    17   -8.335271745289e-01
    18   -1.112412908379e-14
    19    1.094253381494e-02
    20    8.088346939238e-03
    21   -3.959869290208e-15
    22    2.558222528202e-15
    23   -2.591686975674e-15
    24   -5.881605339948e-14
    25   -5.719399240716e-13
    26   -2.011757994390e-12
    27   -1.134708254699e-14
    28   -5.942189323857e-15
    29   -1.446753061816e-03
    30   -3.668556371240e-15
    31    1.106694236260e-13
    32   -3.562026181590e-13
    33    3.801219978630e-13
    34   -2.736339131744e-15
    35   -4.041500105821e-15
    36   -5.608816690832e-03
    37   -1.151582927853e-14
    38    1.053627811427e-13
    39   -1.155671121769e-12
    40    1.796093876325e-12
    41    3.300514926509e-15
    42   -1.031725128008e-14
    43   -5.389866219763e-03
    44    2.329248572216e-15
    45    3.507556645771e-15
    46   -1.978287615765e-14
    47   -2.003919717841e-15
    48    6.519085340019e-02
    49   -1.324746282732e-14
    50    1.213010577306e-14
    51   -5.022899877642e-15
    52    1.188764827622e-01
    53    1.894354418135e-13
    54   -4.532190674072e-13
    55   -6.707252192323e-14
    56    1.481120608956e-01
    57   -4.437714394496e-13
    58   -1.818679461150e-12
    59   -1.813416749331e-12
    60   -5.068383720880e-01
    61   -9.505214605596e-15
    62    1.243931502451e-02
    63   -6.854165977891e-03
    64   -2.749346042051e-15
    65    4.432442572894e-16
    66   -1.854093472048e-15
    67   -1.256187515274e-15
    68    3.100549283063e-15
    69   -4.568709719309e-15
    70   -2.407317531316e-02
    71    9.966818351579e-16
    72    2.130739469699e-14
    73    1.722252200473e-15
    74   -3.156055494146e-02
    75    5.362223944145e-14
    76   -6.288825505922e-14
    77   -3.995114863064e-14
    78   -7.072290474794e-02
    79   -1.346356424342e-12
    80   -1.424957348136e-13
    81    6.905651879127e-13
    82    1.771812386941e-02
    83   -3.890508631198e-15
    84    3.205514520676e-03
    85   -2.282094432245e-03
    86   -1.581070950062e-15
    87   -4.327354217856e-15
    88    2.063996614756e-15
    89    1.486527551439e-15
    90   -4.531886804905e-16
    91   -2.129461193715e-15
    92    2.282492475509e-02
    93    1.205491814349e-14
    94    1.941862204170e-14
    95    1.000347174465e-14
    96    3.326845032640e-02
    97   -4.256344043569e-13
    98    1.087098784998e-13
    99   -1.225329190818e-13
   100    5.174124667778e-02
   101    1.234550949269e-12
   102    4.285311218590e-12
   103   -1.961025552921e-12
   104   -1.731293755998e+00
   105    3.649760015280e-15
   106    6.111580077600e-03
   107   -1.136884537135e-02
   108   -1.182580515149e-14
   109   -3.314510746400e-16
   110    1.696706450205e-15
   111    6.257755822056e-15
   112   -3.313065459052e-15
   113    1.649312877148e-14
   114    4.289015603789e-02
   115   -2.550617808001e-14
   116   -1.009941682595e-14
   117    4.235502167896e-15
   118    6.606088312808e-02
   119    3.074464138066e-14
   120    8.565539345913e-14
   121    7.473719978511e-14
   122    2.778894659822e-02
   123   -5.671715706958e-13
   124   -6.628342702027e-13
   125   -3.177922084030e-13
   126    1.242119934031e-01
   127    4.944703588712e-15
   128   -3.737624768538e-03
   129   -4.043645868440e-03
   130    2.011719287483e-15
   131   -3.072158627828e-15
   132   -4.030855627363e-15
   133   -8.740474086081e-15
   134   -2.062399483314e-14
   135    1.100312279223e-14
   136    1.218751032216e-02
   137    3.932495567325e-14
   138   -2.692846149747e-14
   139    2.761824523935e-14
   140    3.559141826825e-02
   141   -2.153436187701e-14
   142   -1.080415006052e-13
   143   -1.772935173196e-13
   144   -4.347662084922e-02
   145    7.138758827826e-12
   146   -1.382809398026e-13
   147    2.642910279735e-13
   148    5.446513194600e-01
   149    4.199835626440e-15
   150   -8.014557365079e-03
   151   -6.623676106675e-03
   152    1.373705533872e-15
   153   -3.184714032477e-15
   154   -1.672716958411e-15
   155   -9.162408284525e-15
   156   -2.055317671989e-15
   157    1.299582093236e-15
   158    9.143325023774e-03
   159    8.466433025794e-15
   160    2.146896448989e-14
   161    2.851659795884e-15
   162    2.664644337446e-02
   163    2.765822034611e-13
   164   -1.680552235072e-13
   165   -8.591943569396e-14
   166   -3.444531107877e-02
   167   -2.383549013634e-12
   168   -9.189200417261e-13
   169   -1.644926305461e-13
   170    4.608051724344e-01
   171   -7.140069506797e-15
   172   -1.874749916734e-03
   173    9.604228535926e-03
   174    6.279687472274e-15
   175    3.133004550917e-15
   176    8.529415198832e-15
   177    7.335293298134e-15
   178   -2.024287173318e-14
   179    8.142324965048e-15
   180    7.585540402815e-02
   181    1.170334377376e-14
   182    1.197834621515e-14
   183    1.181847595315e-14
   184    1.098349775969e-01
   185   -6.147716230788e-13
   186   -2.357044431170e-13
   187    6.903500968232e-14
   188    2.685685046843e-01
   189    6.208059882197e-13
   190   -3.140877098378e-12
   191   -3.063465020166e-12
   192    9.711330739217e-01
   193    1.712360294188e-14
   194    1.522916803778e-03
   195    5.758555211269e-03
   196   -5.848648824706e-15
   197   -5.043188104008e-15
   198   -1.154184745790e-15
   199    5.608819742025e-14
   200    4.449961888602e-13
   201   -1.016196928621e-12
   202   -2.863485121672e-17
   203    1.464889378622e-15
   204    4.031428570222e-03
[5D]
