[Molden Format]
[Atoms] (Angs)
  C      1    6     -0.00714236     -1.70213747     -0.00000000
  H      2    1     -2.06882847     -1.44022412      0.00000000
  H      3    1     -0.12337987     -2.77567521      0.00000000
  H      4    1      0.04651892      1.98813947     -0.00000000
  C      5    6     -1.21953563      0.40211669      0.00000000
  O      6    8     -2.25921553      1.03043814      0.00000000
  C      7    6      1.28797806      0.34644937     -0.00000000
  O      8    8      2.31273661      1.00537216     -0.00000000
  N      9    7      0.03446295      0.97739857     -0.00000000
  N     10    7     -1.17287765     -0.98229824      0.00000000
  C     11    6      1.20107039     -1.10433419     -0.00000000
  H     12    1      2.11220096     -1.67699125     -0.00000000
[GTO]
1    0
S    6    1.000000
   4.56324000E+03    1.96665000E-03 
   6.82024000E+02    1.52306000E-02 
   1.54973000E+02    7.61269000E-02 
   4.44553000E+01    2.60801000E-01 
   1.30290000E+01    6.16462000E-01 
   1.82773000E+00    2.21006000E-01 
SP   3    1.000000
   2.09642000E+01    1.14660000E-01   4.02487000E-02 
   4.80331000E+00    9.19999000E-01   2.37594000E-01 
   1.45933000E+00   -3.03068000E-03   8.15854000E-01 
SP   1    1.000000
   4.83456000E-01    1.00000000E+00   1.00000000E+00 
SP   1    1.000000
   1.45585000E-01    1.00000000E+00   1.00000000E+00 
SP   1    1.000000
   4.38000000E-02    1.00000000E+00   1.00000000E+00 
D    1    1.000000
   6.26000000E-01    1.00000000E+00 

2    0
S    3    1.000000
   3.38650000E+01    2.54938000E-02 
   5.09479000E+00    1.90373000E-01 
   1.15879000E+00    8.52161000E-01 
S    1    1.000000
   3.25840000E-01    1.00000000E+00 
S    1    1.000000
   1.02741000E-01    1.00000000E+00 
S    1    1.000000
   3.60000000E-02    1.00000000E+00 
P    1    1.000000
   7.50000000E-01    1.00000000E+00 

3    0
S    3    1.000000
   3.38650000E+01    2.54938000E-02 
   5.09479000E+00    1.90373000E-01 
   1.15879000E+00    8.52161000E-01 
S    1    1.000000
   3.25840000E-01    1.00000000E+00 
S    1    1.000000
   1.02741000E-01    1.00000000E+00 
S    1    1.000000
   3.60000000E-02    1.00000000E+00 
P    1    1.000000
   7.50000000E-01    1.00000000E+00 

4    0
S    3    1.000000
   3.38650000E+01    2.54938000E-02 
   5.09479000E+00    1.90373000E-01 
   1.15879000E+00    8.52161000E-01 
S    1    1.000000
   3.25840000E-01    1.00000000E+00 
S    1    1.000000
   1.02741000E-01    1.00000000E+00 
S    1    1.000000
   3.60000000E-02    1.00000000E+00 
P    1    1.000000
   7.50000000E-01    1.00000000E+00 

5    0
S    6    1.000000
   4.56324000E+03    1.96665000E-03 
   6.82024000E+02    1.52306000E-02 
   1.54973000E+02    7.61269000E-02 
   4.44553000E+01    2.60801000E-01 
   1.30290000E+01    6.16462000E-01 
   1.82773000E+00    2.21006000E-01 
SP   3    1.000000
   2.09642000E+01    1.14660000E-01   4.02487000E-02 
   4.80331000E+00    9.19999000E-01   2.37594000E-01 
   1.45933000E+00   -3.03068000E-03   8.15854000E-01 
SP   1    1.000000
   4.83456000E-01    1.00000000E+00   1.00000000E+00 
SP   1    1.000000
   1.45585000E-01    1.00000000E+00   1.00000000E+00 
SP   1    1.000000
   4.38000000E-02    1.00000000E+00   1.00000000E+00 
D    1    1.000000
   6.26000000E-01    1.00000000E+00 

6    0
S    6    1.000000
   8.58850000E+03    1.89515000E-03 
   1.29723000E+03    1.43859000E-02 
   2.99296000E+02    7.07320000E-02 
   8.73771000E+01    2.40001000E-01 
   2.56789000E+01    5.94797000E-01 
   3.74004000E+00    2.80802000E-01 
SP   3    1.000000
   4.21175000E+01    1.13889000E-01   3.65114000E-02 
   9.62837000E+00    9.20811000E-01   2.37153000E-01 
   2.85332000E+00   -3.27447000E-03   8.19702000E-01 
SP   1    1.000000
   9.05661000E-01    1.00000000E+00   1.00000000E+00 
SP   1    1.000000
   2.55611000E-01    1.00000000E+00   1.00000000E+00 
SP   1    1.000000
   8.45000000E-02    1.00000000E+00   1.00000000E+00 
D    1    1.000000
   1.29200000E+00    1.00000000E+00 

7    0
S    6    1.000000
   4.56324000E+03    1.96665000E-03 
   6.82024000E+02    1.52306000E-02 
   1.54973000E+02    7.61269000E-02 
   4.44553000E+01    2.60801000E-01 
   1.30290000E+01    6.16462000E-01 
   1.82773000E+00    2.21006000E-01 
SP   3    1.000000
   2.09642000E+01    1.14660000E-01   4.02487000E-02 
   4.80331000E+00    9.19999000E-01   2.37594000E-01 
   1.45933000E+00   -3.03068000E-03   8.15854000E-01 
SP   1    1.000000
   4.83456000E-01    1.00000000E+00   1.00000000E+00 
SP   1    1.000000
   1.45585000E-01    1.00000000E+00   1.00000000E+00 
SP   1    1.000000
   4.38000000E-02    1.00000000E+00   1.00000000E+00 
D    1    1.000000
   6.26000000E-01    1.00000000E+00 

8    0
S    6    1.000000
   8.58850000E+03    1.89515000E-03 
   1.29723000E+03    1.43859000E-02 
   2.99296000E+02    7.07320000E-02 
   8.73771000E+01    2.40001000E-01 
   2.56789000E+01    5.94797000E-01 
   3.74004000E+00    2.80802000E-01 
SP   3    1.000000
   4.21175000E+01    1.13889000E-01   3.65114000E-02 
   9.62837000E+00    9.20811000E-01   2.37153000E-01 
   2.85332000E+00   -3.27447000E-03   8.19702000E-01 
SP   1    1.000000
   9.05661000E-01    1.00000000E+00   1.00000000E+00 
SP   1    1.000000
   2.55611000E-01    1.00000000E+00   1.00000000E+00 
SP   1    1.000000
   8.45000000E-02    1.00000000E+00   1.00000000E+00 
D    1    1.000000
   1.29200000E+00    1.00000000E+00 

9    0
S    6    1.000000
   6.29348000E+03    1.96979000E-03 
   9.49044000E+02    1.49613000E-02 
   2.18776000E+02    7.35006000E-02 
   6.36916000E+01    2.48937000E-01 
   1.88282000E+01    6.02460000E-01 
   2.72023000E+00    2.56202000E-01 
SP   3    1.000000
   3.06331000E+01    1.11906000E-01   3.83119000E-02 
   7.02614000E+00    9.21666000E-01   2.37403000E-01 
   2.11205000E+00   -2.56919000E-03   8.17592000E-01 
SP   1    1.000000
   6.84009000E-01    1.00000000E+00   1.00000000E+00 
SP   1    1.000000
   2.00878000E-01    1.00000000E+00   1.00000000E+00 
SP   1    1.000000
   6.39000000E-02    1.00000000E+00   1.00000000E+00 
D    1    1.000000
   9.13000000E-01    1.00000000E+00 

10    0
S    6    1.000000
   6.29348000E+03    1.96979000E-03 
   9.49044000E+02    1.49613000E-02 
   2.18776000E+02    7.35006000E-02 
   6.36916000E+01    2.48937000E-01 
   1.88282000E+01    6.02460000E-01 
   2.72023000E+00    2.56202000E-01 
SP   3    1.000000
   3.06331000E+01    1.11906000E-01   3.83119000E-02 
   7.02614000E+00    9.21666000E-01   2.37403000E-01 
   2.11205000E+00   -2.56919000E-03   8.17592000E-01 
SP   1    1.000000
   6.84009000E-01    1.00000000E+00   1.00000000E+00 
SP   1    1.000000
   2.00878000E-01    1.00000000E+00   1.00000000E+00 
SP   1    1.000000
   6.39000000E-02    1.00000000E+00   1.00000000E+00 
D    1    1.000000
   9.13000000E-01    1.00000000E+00 

11    0
S    6    1.000000
   4.56324000E+03    1.96665000E-03 
   6.82024000E+02    1.52306000E-02 
   1.54973000E+02    7.61269000E-02 
   4.44553000E+01    2.60801000E-01 
   1.30290000E+01    6.16462000E-01 
   1.82773000E+00    2.21006000E-01 
SP   3    1.000000
   2.09642000E+01    1.14660000E-01   4.02487000E-02 
   4.80331000E+00    9.19999000E-01   2.37594000E-01 
   1.45933000E+00   -3.03068000E-03   8.15854000E-01 
SP   1    1.000000
   4.83456000E-01    1.00000000E+00   1.00000000E+00 
SP   1    1.000000
   1.45585000E-01    1.00000000E+00   1.00000000E+00 
SP   1    1.000000
   4.38000000E-02    1.00000000E+00   1.00000000E+00 
D    1    1.000000
   6.26000000E-01    1.00000000E+00 

12    0
S    3    1.000000
   3.38650000E+01    2.54938000E-02 
   5.09479000E+00    1.90373000E-01 
   1.15879000E+00    8.52161000E-01 
S    1    1.000000
   3.25840000E-01    1.00000000E+00 
S    1    1.000000
   1.02741000E-01    1.00000000E+00 
S    1    1.000000
   3.60000000E-02    1.00000000E+00 
P    1    1.000000
   7.50000000E-01    1.00000000E+00 

[MO]
Sym=X
Ene= -0.495627
Spin=Alpha
Occup=1
     1    9.702691878593e-03
     2    1.674262272357e-02
     3   -3.352611478768e-04
     4    3.327567645097e-02
     5    4.762453936084e-14
     6   -5.062844952331e-02
     7   -1.538503419187e-03
     8    5.227752298355e-02
     9    8.360536993311e-14
    10   -1.588001037052e-01
    11    3.296654267387e-02
    12    1.291210114080e-01
    13    1.313613897012e-13
    14   -1.788773121839e+00
    15    3.183408947207e-01
    16    8.687510898764e-01
    17    1.147282719172e-13
    18    3.340322958984e-03
    19   -6.406505489948e-15
    20   -3.716087732212e-15
    21   -1.308734192762e-02
    22    3.114413897539e-03
    23    2.461107310344e-03
    24    2.436914391358e-02
    25    1.024109059986e-02
    26    5.870849614260e-01
    27   -3.348344518125e-03
    28   -1.306680750802e-03
    29    1.744729482261e-15
    30    7.930126093918e-04
    31    5.060853337182e-03
    32    3.162465505819e-01
    33    1.793358136174e+00
    34   -1.174817847012e-03
    35   -9.131865407812e-03
    36    1.007440751690e-14
    37    1.868843120566e-03
    38   -2.556755754192e-03
    39   -5.396875939609e-01
    40   -1.350223495881e+00
    41   -3.848509662353e-03
    42   -9.563210820884e-03
    43    3.395758018351e-15
    44    3.928918649261e-03
    45    7.290605703611e-03
    46   -6.596319508718e-03
    47    2.868624626615e-03
    48   -2.251557462872e-14
    49   -3.309743530236e-02
    50   -1.463599017743e-02
    51    5.282805342677e-03
    52   -3.293859602767e-14
    53    9.200803487416e-02
    54    6.424015907362e-02
    55    7.462362827701e-04
    56   -1.176606353018e-13
    57   -9.499083849415e-02
    58    2.228119572218e-01
    59    7.043090563086e-01
    60   -4.510544497839e-13
    61   -2.918843764246e-03
    62    6.376468688541e-16
    63    6.293742498960e-15
    64   -5.612561847127e-03
    65   -4.432855837247e-05
    66   -7.765064812660e-04
    67   -1.319745538092e-03
    68    4.348007314218e-03
    69    6.943072490204e-03
    70    2.795311189085e-14
    71    3.841090366873e-03
    72    6.701757483696e-03
    73    9.288612555381e-03
    74    4.962635021515e-14
    75    1.603642120129e-02
    76    3.483890972503e-03
    77    1.697134884360e-02
    78    5.274468222464e-14
    79   -1.751762904559e-02
    80   -9.598841264113e-03
    81   -7.063118102051e-02
    82    9.239544068833e-14
    83    1.079162522068e-05
    84   -4.408398109699e-18
    85   -1.349415057996e-16
    86    4.223199925393e-04
    87    3.959852534222e-04
    88    3.469650348294e-03
    89    6.213997684629e-03
    90   -6.406121695087e-03
    91    2.863298390220e-03
    92   -1.040984271493e-14
    93   -2.268546987659e-02
    94   -1.141782165838e-02
    95    8.945655671833e-03
    96   -8.832713208685e-15
    97   -1.302190587376e-02
    98   -1.865474566181e-01
    99   -1.074593573806e-01
   100   -4.827371450219e-14
   101   -8.680772005809e-01
   102    3.929147929114e-01
   103   -5.234300899126e-01
   104    1.051381414549e-13
   105   -4.372437603214e-03
   106   -2.527755972950e-15
   107    8.953705249928e-15
   108   -9.367891546465e-03
   109    8.607575373483e-03
   110   -6.834627262990e-03
   111   -1.175555250906e-02
   112   -2.121718469475e-02
   113    2.754994975355e-02
   114    5.556747475925e-15
   115    3.860120429721e-02
   116   -2.968877994136e-02
   117    3.771750431086e-02
   118    6.177108123457e-15
   119    1.204197546094e-01
   120   -4.470913666191e-02
   121    1.417043180306e-02
   122    2.117182136004e-14
   123    2.840257895224e-01
   124   -3.471179348576e-02
   125   -7.753652318903e-02
   126    7.009961545265e-14
   127   -1.010396903224e-04
   128    9.276388818648e-16
   129    1.197449707786e-15
   130    3.564529962144e-03
   131   -1.376700549004e-03
   132   -6.525207163234e-03
   133   -1.134246004614e-02
   134   -6.348776232383e-04
   135    3.588861674509e-02
   136    2.864631719816e-14
   137    3.620563819933e-02
   138    2.161218832742e-03
   139    5.469079225379e-02
   140    4.197287274283e-14
   141    6.026114895571e-02
   142   -2.140118980397e-03
   143    1.365518285616e-01
   144    7.760834899890e-14
   145    1.576466213183e-01
   146    1.719026499449e-01
   147    9.242140060247e-01
   148    4.319488672248e-14
   149   -5.308442313945e-04
   150    2.332772444546e-15
   151    4.857396156001e-16
   152    4.594458861467e-04
   153   -2.627098916697e-03
   154    4.076771188286e-03
   155    6.950537592567e-03
   156    8.318061340610e-03
   157    1.656105660331e-02
   158   -2.162865382465e-14
   159   -1.996566625837e-02
   160    1.391774771184e-02
   161    2.435304601152e-02
   162   -2.399206651808e-14
   163   -8.892047665670e-02
   164    2.553412113396e-02
   165    3.133937090242e-02
   166   -6.464656453800e-14
   167    5.055253498529e-01
   168   -1.620265367314e-02
   169    2.999641999384e-02
   170    2.903780718762e-13
   171    1.735732288325e-03
   172    3.926025190406e-15
   173   -7.378998661187e-15
   174    4.739066359099e-03
   175    1.942117963703e-03
   176    8.452518079261e-03
   177    1.458183611973e-02
   178   -2.596325459682e-02
   179    2.848516891674e-02
   180   -3.650327690527e-14
   181   -4.252663334571e-02
   182   -3.823207849925e-02
   183    3.750031625640e-02
   184   -5.918187442520e-14
   185   -2.820320920555e-01
   186   -4.858775478312e-02
   187    4.192793646025e-02
   188   -1.240026796344e-13
   189   -1.294474040579e+00
   190   -1.477978351814e+00
   191    6.986752806919e-01
   192   -1.745375356143e-13
   193    2.844695429399e-03
   194   -1.926768604199e-15
   195   -6.247691566766e-15
   196    7.239880405136e-03
   197   -8.278612400982e-03
   198   -1.361944131120e-03
   199   -1.510431204594e-02
   200    3.264065985091e-01
   201    2.574874696951e+00
   202    9.513930999811e-03
   203   -5.609917676116e-03
   204   -4.065704263925e-15
Sym=X
Ene= 0.495627
Spin=Alpha
Occup=0
     1   -2.927596667604e-16
     2   -1.420386901971e-15
     3    1.343267144001e-15
     4   -1.576010005952e-14
     5    6.211819710299e-02
     6   -8.049973754522e-15
     7   -5.287541099528e-15
     8   -2.904027115587e-14
     9    7.681755032215e-02
    10    3.837753723713e-13
    11    8.476227706784e-14
    12    1.002102512912e-13
    13    2.632520048994e-01
    14    1.192890957358e-11
    15    1.295424563334e-12
    16    3.716534119750e-12
    17   -1.141110206175e+00
    18    6.578206205871e-15
    19   -3.249408259246e-03
    20    1.522181109344e-02
    21    3.499681186774e-15
    22   -3.517112328560e-15
    23    1.068727530437e-15
    24   -1.564524187809e-14
    25    1.812196542334e-13
    26    1.766191462277e-12
    27    3.555268469421e-15
    28   -6.081888113069e-15
    29   -1.740508771933e-03
    30   -8.857084253781e-15
    31   -9.269935687682e-14
    32    3.482053805375e-13
    33    7.612821930125e-13
    34   -5.576517960335e-15
    35    7.783045725755e-15
    36   -6.217692555178e-03
    37    5.015284207332e-15
    38   -7.147680058712e-14
    39    9.544849039083e-13
    40   -9.644954793883e-13
    41    4.469965334240e-16
    42    1.219253615529e-15
    43    7.151057138570e-03
    44   -1.482656234639e-15
    45   -4.035952034145e-15
    46    1.056510695413e-14
    47    7.477719812053e-15
    48   -2.977437802092e-02
    49    2.946861365970e-14
    50   -7.920238552103e-15
    51   -1.572866884866e-14
    52   -4.341186189594e-02
    53   -1.526228541592e-13
    54    5.855385698247e-13
    55    1.501709154245e-13
    56   -1.271158042353e-01
    57   -5.905506609341e-12
    58    8.842702749631e-13
    59    3.580239090709e-12
    60   -7.838419817320e-01
    61   -1.149881502920e-15
    62   -7.691281755299e-03
    63    2.058490633578e-03
    64   -3.352461949541e-15
    65    1.710080655600e-15
    66   -1.365346024630e-16
    67    6.476737450704e-16
    68   -4.143338353141e-15
    69   -1.941317394125e-15
    70    2.908395182751e-02
    71    3.685652228545e-15
    72   -2.075452061418e-14
    73   -1.444351440341e-14
    74    4.815154671166e-02
    75   -8.843956829804e-16
    76    6.351286248564e-14
    77    1.911896195091e-14
    78    3.847636406968e-02
    79    1.317180068598e-12
    80    4.058294095276e-14
    81   -6.746175214699e-13
    82    2.299250261726e-01
    83   -2.137390294611e-15
    84   -2.383584032215e-04
    85    8.297327865699e-04
    86   -5.185680160459e-16
    87    2.055070142448e-15
    88   -5.033465870887e-15
    89   -5.204135672537e-15
    90    2.792697938962e-16
    91    1.400703078491e-15
    92   -3.892641206752e-02
    93   -9.336121790585e-15
    94   -3.620667035530e-14
    95   -1.117793600296e-14
    96   -4.870350705448e-02
    97    4.647112418492e-13
    98   -1.464636265882e-13
    99   -7.299263960780e-14
   100   -1.968877525220e-01
   101    1.178270003126e-11
   102   -3.417943412215e-12
   103   -1.572371774804e-12
   104    1.593495651725e+00
   105   -3.753852342188e-15
   106   -9.639610256697e-03
   107   -1.929406661690e-03
   108    8.140699148785e-16
   109    2.101817243018e-15
   110   -9.961406724894e-16
   111   -1.151403678865e-15
   112    1.350184477525e-15
   113   -1.124668363240e-14
   114   -2.664778807512e-02
   115    2.779808654812e-15
   116    7.918774707381e-15
   117   -6.674942951369e-15
   118   -4.324817217754e-02
   119    6.449723305241e-14
   120   -8.749829907681e-14
   121   -6.287268386458e-14
   122    5.838929767468e-04
   123    2.040974676552e-13
   124    5.236765335051e-13
   125    3.251324285898e-13
   126   -6.409031704738e-02
   127   -2.425435340147e-15
   128    5.085745821187e-03
   129    5.164298769064e-03
   130    1.033518672471e-15
   131    4.223996979828e-15
   132    2.242089562947e-15
   133    5.415009487462e-15
   134    1.059490476630e-14
   135   -6.059279059397e-15
   136    4.862716788853e-03
   137   -1.884949506417e-14
   138    7.724719666541e-15
   139   -2.735890971335e-14
   140    6.250408680007e-03
   141   -1.323822708491e-13
   142    1.443829021791e-13
   143    2.087913767621e-13
   144    2.667610874922e-02
   145   -5.380152876915e-12
   146   -1.311751922069e-14
   147   -5.114857964287e-13
   148    1.077727348749e-01
   149   -5.929775320152e-15
   150    3.504809456323e-03
   151    6.112958361324e-03
   152    1.230301164179e-15
   153   -2.325729168802e-15
   154   -3.436313092257e-16
   155    7.688205386044e-16
   156   -2.178108124057e-15
   157   -2.387872305431e-15
   158    2.739671857422e-02
   159    2.331014734993e-14
   160   -8.774518237430e-15
   161   -2.882342991866e-15
   162    5.333764302828e-02
   163   -2.761343233049e-13
   164   -5.353670268169e-14
   165   -5.522263986560e-15
   166    1.043893355947e-02
   167    1.947582300016e-12
   168   -2.850646932214e-13
   169    1.049514212429e-12
   170    4.958842080567e-01
   171    9.319224770947e-15
   172    6.939539598590e-03
   173   -4.482778359118e-03
   174   -3.271851824582e-15
   175    5.549353174711e-15
   176   -3.171055920178e-15
   177   -3.583710764142e-15
   178    1.744780103874e-14
   179   -3.230188528310e-15
   180    2.276189620613e-02
   181    1.050614687838e-14
   182    5.198566271624e-15
   183   -2.962840496141e-14
   184    2.966694381135e-02
   185   -5.238036294025e-14
   186    4.792569660578e-13
   187   -1.022953730971e-14
   188    8.068680399879e-02
   189   -1.801761109349e-11
   190    4.186447477738e-12
   191   -2.664389288275e-12
   192   -7.072146399748e-01
   193    7.219484725766e-15
   194   -9.466120034210e-03
   195    1.037789848300e-03
   196   -3.874382745645e-15
   197   -2.574681611597e-15
   198   -3.660523037191e-16
   199   -7.417364890350e-14
   200   -3.513644171115e-13
   201   -5.650678674755e-13
   202    1.849889341094e-15
   203   -5.062209933731e-15
   204   -3.499169880793e-03
[5D]
