[Molden Format]
[Atoms] (Angs)
  C      1    6     -0.00714236     -1.70213747     -0.00000000
  H      2    1     -2.06882847     -1.44022412      0.00000000
  H      3    1     -0.12337987     -2.77567521      0.00000000
  H      4    1      0.04651892      1.98813947     -0.00000000
  C      5    6     -1.21953563      0.40211669      0.00000000
  O      6    8     -2.25921553      1.03043814      0.00000000
  C      7    6      1.28797806      0.34644937     -0.00000000
  O      8    8      2.31273661      1.00537216     -0.00000000
  N      9    7      0.03446295      0.97739857     -0.00000000
  N     10    7     -1.17287765     -0.98229824      0.00000000
  C     11    6      1.20107039     -1.10433419     -0.00000000
  H     12    1      2.11220096     -1.67699125     -0.00000000
[GTO]
1    0
S    6    1.000000
   4.56324000E+03    1.96665000E-03 
   6.82024000E+02    1.52306000E-02 
   1.54973000E+02    7.61269000E-02 
   4.44553000E+01    2.60801000E-01 
   1.30290000E+01    6.16462000E-01 
   1.82773000E+00    2.21006000E-01 
SP   3    1.000000
   2.09642000E+01    1.14660000E-01   4.02487000E-02 
   4.80331000E+00    9.19999000E-01   2.37594000E-01 
   1.45933000E+00   -3.03068000E-03   8.15854000E-01 
SP   1    1.000000
   4.83456000E-01    1.00000000E+00   1.00000000E+00 
SP   1    1.000000
   1.45585000E-01    1.00000000E+00   1.00000000E+00 
SP   1    1.000000
   4.38000000E-02    1.00000000E+00   1.00000000E+00 
D    1    1.000000
   6.26000000E-01    1.00000000E+00 

2    0
S    3    1.000000
   3.38650000E+01    2.54938000E-02 
   5.09479000E+00    1.90373000E-01 
   1.15879000E+00    8.52161000E-01 
S    1    1.000000
   3.25840000E-01    1.00000000E+00 
S    1    1.000000
   1.02741000E-01    1.00000000E+00 
S    1    1.000000
   3.60000000E-02    1.00000000E+00 
P    1    1.000000
   7.50000000E-01    1.00000000E+00 

3    0
S    3    1.000000
   3.38650000E+01    2.54938000E-02 
   5.09479000E+00    1.90373000E-01 
   1.15879000E+00    8.52161000E-01 
S    1    1.000000
   3.25840000E-01    1.00000000E+00 
S    1    1.000000
   1.02741000E-01    1.00000000E+00 
S    1    1.000000
   3.60000000E-02    1.00000000E+00 
P    1    1.000000
   7.50000000E-01    1.00000000E+00 

4    0
S    3    1.000000
   3.38650000E+01    2.54938000E-02 
   5.09479000E+00    1.90373000E-01 
   1.15879000E+00    8.52161000E-01 
S    1    1.000000
   3.25840000E-01    1.00000000E+00 
S    1    1.000000
   1.02741000E-01    1.00000000E+00 
S    1    1.000000
   3.60000000E-02    1.00000000E+00 
P    1    1.000000
   7.50000000E-01    1.00000000E+00 

5    0
S    6    1.000000
   4.56324000E+03    1.96665000E-03 
   6.82024000E+02    1.52306000E-02 
   1.54973000E+02    7.61269000E-02 
   4.44553000E+01    2.60801000E-01 
   1.30290000E+01    6.16462000E-01 
   1.82773000E+00    2.21006000E-01 
SP   3    1.000000
   2.09642000E+01    1.14660000E-01   4.02487000E-02 
   4.80331000E+00    9.19999000E-01   2.37594000E-01 
   1.45933000E+00   -3.03068000E-03   8.15854000E-01 
SP   1    1.000000
   4.83456000E-01    1.00000000E+00   1.00000000E+00 
SP   1    1.000000
   1.45585000E-01    1.00000000E+00   1.00000000E+00 
SP   1    1.000000
   4.38000000E-02    1.00000000E+00   1.00000000E+00 
D    1    1.000000
   6.26000000E-01    1.00000000E+00 

6    0
S    6    1.000000
   8.58850000E+03    1.89515000E-03 
   1.29723000E+03    1.43859000E-02 
   2.99296000E+02    7.07320000E-02 
   8.73771000E+01    2.40001000E-01 
   2.56789000E+01    5.94797000E-01 
   3.74004000E+00    2.80802000E-01 
SP   3    1.000000
   4.21175000E+01    1.13889000E-01   3.65114000E-02 
   9.62837000E+00    9.20811000E-01   2.37153000E-01 
   2.85332000E+00   -3.27447000E-03   8.19702000E-01 
SP   1    1.000000
   9.05661000E-01    1.00000000E+00   1.00000000E+00 
SP   1    1.000000
   2.55611000E-01    1.00000000E+00   1.00000000E+00 
SP   1    1.000000
   8.45000000E-02    1.00000000E+00   1.00000000E+00 
D    1    1.000000
   1.29200000E+00    1.00000000E+00 

7    0
S    6    1.000000
   4.56324000E+03    1.96665000E-03 
   6.82024000E+02    1.52306000E-02 
   1.54973000E+02    7.61269000E-02 
   4.44553000E+01    2.60801000E-01 
   1.30290000E+01    6.16462000E-01 
   1.82773000E+00    2.21006000E-01 
SP   3    1.000000
   2.09642000E+01    1.14660000E-01   4.02487000E-02 
   4.80331000E+00    9.19999000E-01   2.37594000E-01 
   1.45933000E+00   -3.03068000E-03   8.15854000E-01 
SP   1    1.000000
   4.83456000E-01    1.00000000E+00   1.00000000E+00 
SP   1    1.000000
   1.45585000E-01    1.00000000E+00   1.00000000E+00 
SP   1    1.000000
   4.38000000E-02    1.00000000E+00   1.00000000E+00 
D    1    1.000000
   6.26000000E-01    1.00000000E+00 

8    0
S    6    1.000000
   8.58850000E+03    1.89515000E-03 
   1.29723000E+03    1.43859000E-02 
   2.99296000E+02    7.07320000E-02 
   8.73771000E+01    2.40001000E-01 
   2.56789000E+01    5.94797000E-01 
   3.74004000E+00    2.80802000E-01 
SP   3    1.000000
   4.21175000E+01    1.13889000E-01   3.65114000E-02 
   9.62837000E+00    9.20811000E-01   2.37153000E-01 
   2.85332000E+00   -3.27447000E-03   8.19702000E-01 
SP   1    1.000000
   9.05661000E-01    1.00000000E+00   1.00000000E+00 
SP   1    1.000000
   2.55611000E-01    1.00000000E+00   1.00000000E+00 
SP   1    1.000000
   8.45000000E-02    1.00000000E+00   1.00000000E+00 
D    1    1.000000
   1.29200000E+00    1.00000000E+00 

9    0
S    6    1.000000
   6.29348000E+03    1.96979000E-03 
   9.49044000E+02    1.49613000E-02 
   2.18776000E+02    7.35006000E-02 
   6.36916000E+01    2.48937000E-01 
   1.88282000E+01    6.02460000E-01 
   2.72023000E+00    2.56202000E-01 
SP   3    1.000000
   3.06331000E+01    1.11906000E-01   3.83119000E-02 
   7.02614000E+00    9.21666000E-01   2.37403000E-01 
   2.11205000E+00   -2.56919000E-03   8.17592000E-01 
SP   1    1.000000
   6.84009000E-01    1.00000000E+00   1.00000000E+00 
SP   1    1.000000
   2.00878000E-01    1.00000000E+00   1.00000000E+00 
SP   1    1.000000
   6.39000000E-02    1.00000000E+00   1.00000000E+00 
D    1    1.000000
   9.13000000E-01    1.00000000E+00 

10    0
S    6    1.000000
   6.29348000E+03    1.96979000E-03 
   9.49044000E+02    1.49613000E-02 
   2.18776000E+02    7.35006000E-02 
   6.36916000E+01    2.48937000E-01 
   1.88282000E+01    6.02460000E-01 
   2.72023000E+00    2.56202000E-01 
SP   3    1.000000
   3.06331000E+01    1.11906000E-01   3.83119000E-02 
   7.02614000E+00    9.21666000E-01   2.37403000E-01 
   2.11205000E+00   -2.56919000E-03   8.17592000E-01 
SP   1    1.000000
   6.84009000E-01    1.00000000E+00   1.00000000E+00 
SP   1    1.000000
   2.00878000E-01    1.00000000E+00   1.00000000E+00 
SP   1    1.000000
   6.39000000E-02    1.00000000E+00   1.00000000E+00 
D    1    1.000000
   9.13000000E-01    1.00000000E+00 

11    0
S    6    1.000000
   4.56324000E+03    1.96665000E-03 
   6.82024000E+02    1.52306000E-02 
   1.54973000E+02    7.61269000E-02 
   4.44553000E+01    2.60801000E-01 
   1.30290000E+01    6.16462000E-01 
   1.82773000E+00    2.21006000E-01 
SP   3    1.000000
   2.09642000E+01    1.14660000E-01   4.02487000E-02 
   4.80331000E+00    9.19999000E-01   2.37594000E-01 
   1.45933000E+00   -3.03068000E-03   8.15854000E-01 
SP   1    1.000000
   4.83456000E-01    1.00000000E+00   1.00000000E+00 
SP   1    1.000000
   1.45585000E-01    1.00000000E+00   1.00000000E+00 
SP   1    1.000000
   4.38000000E-02    1.00000000E+00   1.00000000E+00 
D    1    1.000000
   6.26000000E-01    1.00000000E+00 

12    0
S    3    1.000000
   3.38650000E+01    2.54938000E-02 
   5.09479000E+00    1.90373000E-01 
   1.15879000E+00    8.52161000E-01 
S    1    1.000000
   3.25840000E-01    1.00000000E+00 
S    1    1.000000
   1.02741000E-01    1.00000000E+00 
S    1    1.000000
   3.60000000E-02    1.00000000E+00 
P    1    1.000000
   7.50000000E-01    1.00000000E+00 

[MO]
Sym=X
Ene= -0.008997
Spin=Alpha
Occup=1
     1   -3.370107409474e-06
     2   -4.384191207408e-06
     3   -9.643881397924e-06
     4   -8.202826183990e-06
     5   -2.912340769217e-16
     6    1.556765379440e-05
     7    1.644866801375e-05
     8   -4.310245095574e-05
     9    1.582616053322e-15
    10   -1.578407188547e-04
    11    1.062284621487e-04
    12    1.950405080909e-05
    13   -1.388455794752e-15
    14    3.225866007454e-03
    15    6.103960311539e-04
    16    5.376206063644e-04
    17   -8.450520876003e-15
    18   -7.919364096664e-06
    19    8.471600229489e-17
    20    1.162451378800e-16
    21    7.741629784696e-06
    22    5.633290350856e-06
    23   -5.699439675792e-06
    24    4.118449562214e-05
    25    6.764551736172e-05
    26    1.662205705527e-04
    27    1.448047055773e-05
    28   -4.065688717038e-06
    29   -7.221329515906e-17
    30    2.208959375892e-06
    31    5.220661705374e-05
    32    1.287100111106e-05
    33   -4.526551909897e-05
    34   -2.135080235765e-06
    35    6.969433984232e-06
    36    6.938610627399e-16
    37    3.917884772747e-06
    38    3.899558167924e-05
    39   -2.509845455149e-04
    40   -6.177443055380e-04
    41    5.887488320695e-06
    42   -1.733086164234e-05
    43    8.599617305287e-16
    44    7.390265367311e-06
    45   -6.353408124234e-05
    46   -9.313863370727e-05
    47    3.165366887159e-05
    48   -9.210052750659e-16
    49    2.980580874073e-04
    50   -3.155047222986e-04
    51    1.566032112975e-04
    52    4.105392605375e-15
    53   -1.829628484536e-04
    54   -5.475029219017e-04
    55    3.749975261656e-04
    56   -4.724568573229e-15
    57   -1.019871565325e-03
    58    1.363651455401e-04
    59    5.017568896938e-05
    60   -6.548709688039e-15
    61   -6.726724815562e-05
    62   -8.511571971351e-16
    63   -6.226061483153e-16
    64    7.751623033010e-05
    65   -1.229450055084e-04
    66    5.514906749007e-01
    67    4.716434251990e-01
    68    1.495413641636e-03
    69   -8.181826032923e-04
    70    2.065058171325e-16
    71    5.596750956671e-03
    72   -4.965869300574e-04
    73    2.588933352006e-04
    74   -2.939772285562e-16
    75   -1.285693818353e-03
    76    9.779140159682e-05
    77   -3.577772014038e-05
    78   -1.060623064548e-15
    79    1.403692019692e-03
    80    1.114663043140e-04
    81   -2.783485642047e-05
    82    2.231310821504e-15
    83   -9.884143105308e-05
    84   -2.919952456697e-16
    85    2.841579741280e-16
    86    1.563236103531e-05
    87    6.319827767335e-05
    88   -4.582551833967e-07
    89    1.709774414314e-07
    90   -1.224270626806e-05
    91   -2.499082509479e-05
    92   -2.199714164419e-16
    93    3.548296781703e-05
    94    2.842636409838e-06
    95   -5.442654360734e-05
    96    2.622441714602e-15
    97   -3.511327779813e-04
    98   -9.037752315725e-05
    99   -3.116245811788e-04
   100   -3.757228325416e-15
   101    3.312121279028e-03
   102   -1.509740700052e-03
   103   -2.074688690095e-03
   104   -1.826630687915e-14
   105   -2.995971099990e-05
   106   -1.867499052826e-17
   107    3.225038319741e-17
   108   -1.261103813917e-05
   109    2.311798416062e-06
   110   -4.374579205137e-05
   111   -6.922917296658e-05
   112   -1.402440503721e-06
   113    3.501742252070e-05
   114    1.491125237415e-15
   115    2.111696982441e-04
   116   -5.600112661584e-07
   117    4.671501357143e-05
   118   -1.174094554799e-15
   119    4.142112090533e-04
   120   -1.026528751058e-04
   121   -1.079251506299e-05
   122   -1.780937533303e-15
   123    6.171989410355e-04
   124    2.163863843427e-04
   125    1.428750818269e-04
   126    7.208332524115e-15
   127   -5.233912559502e-06
   128    4.672657211436e-16
   129    1.107541800790e-15
   130    2.194234413686e-06
   131    3.464542445083e-06
   132   -2.651187333265e-05
   133   -4.320970345847e-05
   134    2.096923224393e-05
   135    2.756034928208e-05
   136    5.085118867573e-16
   137    1.152300019607e-04
   138    8.632874703267e-09
   139    5.560217449609e-05
   140    5.814137016379e-17
   141    6.753760162979e-04
   142    1.164590146107e-04
   143   -1.837447575010e-04
   144   -2.108988638304e-15
   145    4.713200954792e-04
   146    7.326487238384e-04
   147    4.976874124151e-04
   148    1.229394623777e-14
   149   -1.358442920206e-05
   150    2.227173687634e-16
   151   -7.311115431857e-16
   152    1.589301943184e-05
   153   -4.385332971198e-06
   154   -1.036288485836e-05
   155   -1.645295417287e-05
   156    3.313504427356e-06
   157   -1.582662816209e-06
   158   -6.565325614795e-16
   159    3.450965779531e-05
   160   -1.725045506474e-05
   161    3.062983072084e-05
   162    7.644928667005e-17
   163    3.805610732582e-04
   164    2.621964294131e-04
   165    1.104997066991e-04
   166   -8.413560963864e-16
   167    1.101254855366e-03
   168    4.800082273361e-04
   169   -1.957682656997e-05
   170    7.651523171345e-15
   171   -1.006218360769e-05
   172   -2.474865617177e-16
   173    2.734984538107e-16
   174   -1.671469831022e-05
   175   -1.431193584131e-05
   176   -1.996846486153e-05
   177   -3.508040242521e-05
   178    2.455512679330e-05
   179    1.016835781069e-05
   180   -1.379313522756e-15
   181    1.154057120427e-04
   182    2.831352810716e-05
   183    2.661586297978e-05
   184    5.224042917601e-16
   185    1.762917183595e-04
   186    1.886751406013e-04
   187   -4.394574110838e-05
   188   -8.039601521201e-16
   189   -6.489194155943e-03
   190    2.553659642196e-03
   191   -1.573826919519e-03
   192    1.565061023045e-14
   193   -7.609461901515e-06
   194   -3.050904517913e-17
   195   -3.636469122514e-16
   196   -4.873111219585e-06
   197   -3.294654955605e-06
   198    1.148264602417e-05
   199    7.374420079569e-06
   200   -2.715834748840e-04
   201   -2.340318980905e-03
   202   -7.096923875335e-06
   203    1.564879152500e-06
   204    8.123450508488e-16
Sym=X
Ene= 0.008997
Spin=Alpha
Occup=0
     1   -1.200887685975e-06
     2   -3.269072130979e-06
     3    5.994579250001e-06
     4    1.599857377731e-06
     5    5.275586321386e-16
     6    1.753765133521e-05
     7   -3.004397893215e-06
     8    6.200900242825e-06
     9   -8.950800232773e-16
    10   -5.180593670007e-04
    11   -1.335699779553e-04
    12   -1.936920957439e-04
    13    5.594398360845e-15
    14   -4.068879985236e-05
    15    2.671063142660e-04
    16   -5.406790355839e-04
    17   -2.195081815612e-14
    18    1.767451482977e-06
    19    8.558077745165e-16
    20    9.157646479443e-16
    21   -2.615113238141e-06
    22    3.872816945465e-06
    23    4.301788515938e-07
    24   -4.691784393512e-07
    25   -3.866161605135e-05
    26    8.654996651190e-05
    27   -2.934407522270e-06
    28    1.267921768765e-07
    29   -6.479957929994e-16
    30   -4.306883009514e-06
    31    2.669372441557e-06
    32   -1.062406912248e-04
    33   -2.530546741997e-04
    34    5.738843996139e-06
    35    9.250846726287e-07
    36    9.187626346338e-16
    37    2.339241370517e-06
    38    5.058798917564e-05
    39    1.718005331629e-04
    40    1.545394594063e-04
    41   -9.014396131173e-06
    42   -5.039871076015e-06
    43    4.366500591517e-16
    44   -3.117711791653e-07
    45    1.468572142544e-06
    46    5.113905265523e-06
    47    3.660635116611e-07
    48   -8.994475684199e-16
    49   -7.011095335357e-06
    50   -2.434210149303e-05
    51   -2.418589863056e-06
    52    2.284972007025e-15
    53   -2.574191893908e-04
    54   -1.217726278454e-04
    55    4.768403962928e-05
    56   -1.981386260631e-15
    57   -2.635715342276e-04
    58   -4.984850644201e-06
    59   -1.171903535680e-04
    60   -9.788696014464e-15
    61    4.493395413905e-06
    62   -2.965113188014e-16
    63    1.322716509312e-15
    64   -5.888009497190e-06
    65    8.116704024181e-07
    66    9.601721095190e-06
    67    9.942396648003e-06
    68    7.044435498515e-07
    69   -6.611996628978e-07
    70    2.839687219251e-16
    71   -4.823626544659e-06
    72   -2.563228616732e-06
    73    3.849790831634e-07
    74    1.866973321931e-16
    75    1.468751941738e-05
    76    1.278567545570e-05
    77   -3.164636089505e-06
    78   -2.379916835560e-15
    79   -1.897031524524e-04
    80   -1.058610161545e-04
    81    4.540906209254e-05
    82    3.035553907969e-15
    83    1.622059068037e-07
    84   -3.494158453681e-16
    85    2.071202790722e-16
    86    3.251093344919e-07
    87   -1.167100864007e-07
    88   -2.535469199613e-06
    89   -8.057892855047e-05
    90    8.200921099418e-05
    91    5.485661029988e-05
    92   -1.073195676141e-15
    93    3.221322660071e-04
    94    3.453866938354e-04
    95    2.040632006704e-04
    96    1.589260538035e-15
    97   -2.047813634410e-04
    98    6.185893097947e-04
    99    2.563011081592e-04
   100    1.972827648619e-16
   101   -2.703096108133e-03
   102   -5.257375115590e-04
   103    6.057724075941e-04
   104    1.488583413560e-15
   105   -4.076229472085e-05
   106    9.361172059980e-16
   107   -6.900710890452e-16
   108    8.377586263776e-05
   109    1.683838436423e-04
   110    5.516009076573e-01
   111    4.715868358279e-01
   112   -1.449951481222e-03
   113   -5.756263783332e-04
   114    1.603161815405e-15
   115    5.396314623674e-03
   116    5.537647412371e-04
   117    1.243374803293e-04
   118   -2.502448862629e-15
   119   -1.126177863252e-03
   120   -1.265343868557e-04
   121   -4.152501740394e-05
   122    3.634823405449e-15
   123    1.057661917180e-03
   124    2.709558057914e-05
   125   -4.776809045987e-05
   126   -6.254496844705e-15
   127   -1.216873006915e-04
   128    8.877420465998e-16
   129    9.578708086837e-16
   130   -1.545453783201e-05
   131   -8.004130172576e-05
   132   -9.620140543114e-07
   133    2.985086082230e-08
   134   -8.224441422468e-06
   135   -1.001609805004e-06
   136    5.884297156750e-16
   137   -2.724024464295e-05
   138    2.953958306181e-05
   139   -3.969768296938e-07
   140   -5.278475196586e-16
   141    3.754279648858e-04
   142    4.612056313899e-06
   143   -2.725394403197e-04
   144    3.536854394981e-16
   145    1.594905234815e-05
   146   -3.806500064311e-04
   147   -2.322074688318e-04
   148    2.349724133208e-15
   149   -6.715819319631e-06
   150    5.876254451909e-16
   151   -6.842477295363e-16
   152    2.277048247956e-05
   153   -1.162828800129e-05
   154   -9.010974833906e-08
   155    1.193967168363e-07
   156    5.769800683923e-08
   157   -1.672180747957e-07
   158   -1.190677365661e-15
   159   -4.607245294033e-06
   160    2.530844616369e-07
   161   -3.067560988411e-06
   162    2.780905048218e-15
   163    1.176210715542e-04
   164    4.072899860099e-05
   165    2.637958795359e-05
   166   -7.088844513742e-15
   167    2.390782697516e-04
   168   -5.607043103149e-05
   169    2.840299172681e-05
   170    1.849346346653e-14
   171    1.390432105580e-06
   172   -1.719472304197e-15
   173    1.582508667711e-16
   174    4.082912378691e-07
   175   -6.280539682063e-07
   176    4.266482709198e-06
   177    7.120069053712e-06
   178   -6.558853834910e-06
   179   -2.122819064956e-05
   180    5.984531872729e-16
   181   -3.526272099498e-05
   182   -3.535768364501e-06
   183    4.771048179978e-05
   184   -6.222392343881e-16
   185    4.599114732242e-04
   186   -5.366636816706e-04
   187    3.880491699627e-05
   188   -4.238137352657e-15
   189    2.125663649290e-03
   190    2.739290934593e-05
   191    1.172514440616e-03
   192    1.418426744545e-14
   193   -2.966301292614e-06
   194    9.375214180623e-16
   195    9.839106372532e-16
   196   -2.564247205194e-05
   197    2.401022445965e-05
   198   -4.720615008428e-06
   199    1.087572820078e-04
   200    1.484532329331e-04
   201    3.322149242778e-04
   202   -1.640697040491e-05
   203    8.352262979467e-06
   204   -7.655495192025e-16
[5D]
