[Molden Format]
[Atoms] (Angs)
  C      1    6     -0.00714236     -1.70213747     -0.00000000
  H      2    1     -2.06882847     -1.44022412      0.00000000
  H      3    1     -0.12337987     -2.77567521      0.00000000
  H      4    1      0.04651892      1.98813947     -0.00000000
  C      5    6     -1.21953563      0.40211669      0.00000000
  O      6    8     -2.25921553      1.03043814      0.00000000
  C      7    6      1.28797806      0.34644937     -0.00000000
  O      8    8      2.31273661      1.00537216     -0.00000000
  N      9    7      0.03446295      0.97739857     -0.00000000
  N     10    7     -1.17287765     -0.98229824      0.00000000
  C     11    6      1.20107039     -1.10433419     -0.00000000
  H     12    1      2.11220096     -1.67699125     -0.00000000
[GTO]
1    0
S    6    1.000000
   4.56324000E+03    1.96665000E-03 
   6.82024000E+02    1.52306000E-02 
   1.54973000E+02    7.61269000E-02 
   4.44553000E+01    2.60801000E-01 
   1.30290000E+01    6.16462000E-01 
   1.82773000E+00    2.21006000E-01 
SP   3    1.000000
   2.09642000E+01    1.14660000E-01   4.02487000E-02 
   4.80331000E+00    9.19999000E-01   2.37594000E-01 
   1.45933000E+00   -3.03068000E-03   8.15854000E-01 
SP   1    1.000000
   4.83456000E-01    1.00000000E+00   1.00000000E+00 
SP   1    1.000000
   1.45585000E-01    1.00000000E+00   1.00000000E+00 
SP   1    1.000000
   4.38000000E-02    1.00000000E+00   1.00000000E+00 
D    1    1.000000
   6.26000000E-01    1.00000000E+00 

2    0
S    3    1.000000
   3.38650000E+01    2.54938000E-02 
   5.09479000E+00    1.90373000E-01 
   1.15879000E+00    8.52161000E-01 
S    1    1.000000
   3.25840000E-01    1.00000000E+00 
S    1    1.000000
   1.02741000E-01    1.00000000E+00 
S    1    1.000000
   3.60000000E-02    1.00000000E+00 
P    1    1.000000
   7.50000000E-01    1.00000000E+00 

3    0
S    3    1.000000
   3.38650000E+01    2.54938000E-02 
   5.09479000E+00    1.90373000E-01 
   1.15879000E+00    8.52161000E-01 
S    1    1.000000
   3.25840000E-01    1.00000000E+00 
S    1    1.000000
   1.02741000E-01    1.00000000E+00 
S    1    1.000000
   3.60000000E-02    1.00000000E+00 
P    1    1.000000
   7.50000000E-01    1.00000000E+00 

4    0
S    3    1.000000
   3.38650000E+01    2.54938000E-02 
   5.09479000E+00    1.90373000E-01 
   1.15879000E+00    8.52161000E-01 
S    1    1.000000
   3.25840000E-01    1.00000000E+00 
S    1    1.000000
   1.02741000E-01    1.00000000E+00 
S    1    1.000000
   3.60000000E-02    1.00000000E+00 
P    1    1.000000
   7.50000000E-01    1.00000000E+00 

5    0
S    6    1.000000
   4.56324000E+03    1.96665000E-03 
   6.82024000E+02    1.52306000E-02 
   1.54973000E+02    7.61269000E-02 
   4.44553000E+01    2.60801000E-01 
   1.30290000E+01    6.16462000E-01 
   1.82773000E+00    2.21006000E-01 
SP   3    1.000000
   2.09642000E+01    1.14660000E-01   4.02487000E-02 
   4.80331000E+00    9.19999000E-01   2.37594000E-01 
   1.45933000E+00   -3.03068000E-03   8.15854000E-01 
SP   1    1.000000
   4.83456000E-01    1.00000000E+00   1.00000000E+00 
SP   1    1.000000
   1.45585000E-01    1.00000000E+00   1.00000000E+00 
SP   1    1.000000
   4.38000000E-02    1.00000000E+00   1.00000000E+00 
D    1    1.000000
   6.26000000E-01    1.00000000E+00 

6    0
S    6    1.000000
   8.58850000E+03    1.89515000E-03 
   1.29723000E+03    1.43859000E-02 
   2.99296000E+02    7.07320000E-02 
   8.73771000E+01    2.40001000E-01 
   2.56789000E+01    5.94797000E-01 
   3.74004000E+00    2.80802000E-01 
SP   3    1.000000
   4.21175000E+01    1.13889000E-01   3.65114000E-02 
   9.62837000E+00    9.20811000E-01   2.37153000E-01 
   2.85332000E+00   -3.27447000E-03   8.19702000E-01 
SP   1    1.000000
   9.05661000E-01    1.00000000E+00   1.00000000E+00 
SP   1    1.000000
   2.55611000E-01    1.00000000E+00   1.00000000E+00 
SP   1    1.000000
   8.45000000E-02    1.00000000E+00   1.00000000E+00 
D    1    1.000000
   1.29200000E+00    1.00000000E+00 

7    0
S    6    1.000000
   4.56324000E+03    1.96665000E-03 
   6.82024000E+02    1.52306000E-02 
   1.54973000E+02    7.61269000E-02 
   4.44553000E+01    2.60801000E-01 
   1.30290000E+01    6.16462000E-01 
   1.82773000E+00    2.21006000E-01 
SP   3    1.000000
   2.09642000E+01    1.14660000E-01   4.02487000E-02 
   4.80331000E+00    9.19999000E-01   2.37594000E-01 
   1.45933000E+00   -3.03068000E-03   8.15854000E-01 
SP   1    1.000000
   4.83456000E-01    1.00000000E+00   1.00000000E+00 
SP   1    1.000000
   1.45585000E-01    1.00000000E+00   1.00000000E+00 
SP   1    1.000000
   4.38000000E-02    1.00000000E+00   1.00000000E+00 
D    1    1.000000
   6.26000000E-01    1.00000000E+00 

8    0
S    6    1.000000
   8.58850000E+03    1.89515000E-03 
   1.29723000E+03    1.43859000E-02 
   2.99296000E+02    7.07320000E-02 
   8.73771000E+01    2.40001000E-01 
   2.56789000E+01    5.94797000E-01 
   3.74004000E+00    2.80802000E-01 
SP   3    1.000000
   4.21175000E+01    1.13889000E-01   3.65114000E-02 
   9.62837000E+00    9.20811000E-01   2.37153000E-01 
   2.85332000E+00   -3.27447000E-03   8.19702000E-01 
SP   1    1.000000
   9.05661000E-01    1.00000000E+00   1.00000000E+00 
SP   1    1.000000
   2.55611000E-01    1.00000000E+00   1.00000000E+00 
SP   1    1.000000
   8.45000000E-02    1.00000000E+00   1.00000000E+00 
D    1    1.000000
   1.29200000E+00    1.00000000E+00 

9    0
S    6    1.000000
   6.29348000E+03    1.96979000E-03 
   9.49044000E+02    1.49613000E-02 
   2.18776000E+02    7.35006000E-02 
   6.36916000E+01    2.48937000E-01 
   1.88282000E+01    6.02460000E-01 
   2.72023000E+00    2.56202000E-01 
SP   3    1.000000
   3.06331000E+01    1.11906000E-01   3.83119000E-02 
   7.02614000E+00    9.21666000E-01   2.37403000E-01 
   2.11205000E+00   -2.56919000E-03   8.17592000E-01 
SP   1    1.000000
   6.84009000E-01    1.00000000E+00   1.00000000E+00 
SP   1    1.000000
   2.00878000E-01    1.00000000E+00   1.00000000E+00 
SP   1    1.000000
   6.39000000E-02    1.00000000E+00   1.00000000E+00 
D    1    1.000000
   9.13000000E-01    1.00000000E+00 

10    0
S    6    1.000000
   6.29348000E+03    1.96979000E-03 
   9.49044000E+02    1.49613000E-02 
   2.18776000E+02    7.35006000E-02 
   6.36916000E+01    2.48937000E-01 
   1.88282000E+01    6.02460000E-01 
   2.72023000E+00    2.56202000E-01 
SP   3    1.000000
   3.06331000E+01    1.11906000E-01   3.83119000E-02 
   7.02614000E+00    9.21666000E-01   2.37403000E-01 
   2.11205000E+00   -2.56919000E-03   8.17592000E-01 
SP   1    1.000000
   6.84009000E-01    1.00000000E+00   1.00000000E+00 
SP   1    1.000000
   2.00878000E-01    1.00000000E+00   1.00000000E+00 
SP   1    1.000000
   6.39000000E-02    1.00000000E+00   1.00000000E+00 
D    1    1.000000
   9.13000000E-01    1.00000000E+00 

11    0
S    6    1.000000
   4.56324000E+03    1.96665000E-03 
   6.82024000E+02    1.52306000E-02 
   1.54973000E+02    7.61269000E-02 
   4.44553000E+01    2.60801000E-01 
   1.30290000E+01    6.16462000E-01 
   1.82773000E+00    2.21006000E-01 
SP   3    1.000000
   2.09642000E+01    1.14660000E-01   4.02487000E-02 
   4.80331000E+00    9.19999000E-01   2.37594000E-01 
   1.45933000E+00   -3.03068000E-03   8.15854000E-01 
SP   1    1.000000
   4.83456000E-01    1.00000000E+00   1.00000000E+00 
SP   1    1.000000
   1.45585000E-01    1.00000000E+00   1.00000000E+00 
SP   1    1.000000
   4.38000000E-02    1.00000000E+00   1.00000000E+00 
D    1    1.000000
   6.26000000E-01    1.00000000E+00 

12    0
S    3    1.000000
   3.38650000E+01    2.54938000E-02 
   5.09479000E+00    1.90373000E-01 
   1.15879000E+00    8.52161000E-01 
S    1    1.000000
   3.25840000E-01    1.00000000E+00 
S    1    1.000000
   1.02741000E-01    1.00000000E+00 
S    1    1.000000
   3.60000000E-02    1.00000000E+00 
P    1    1.000000
   7.50000000E-01    1.00000000E+00 

[MO]
Sym=X
Ene= -0.136121
Spin=Alpha
Occup=1
     1    8.486137290551e-08
     2    6.681311305586e-07
     3   -4.021704851568e-06
     4   -6.779711651415e-07
     5   -5.463253941921e-16
     6   -7.736975700824e-06
     7    1.583338748870e-05
     8    1.686146295680e-06
     9    9.260280132624e-16
    10    6.520828627579e-04
    11    1.433504333917e-04
    12    2.560902013354e-04
    13   -5.644072968706e-15
    14   -1.164212299967e-04
    15   -3.360283942093e-04
    16    6.124366613057e-04
    17    2.186700812694e-14
    18   -8.218288787797e-07
    19   -8.793452316204e-16
    20   -9.450467527083e-16
    21    3.400131775551e-06
    22   -2.364265298244e-06
    23    9.294981953307e-08
    24   -3.876697198968e-06
    25    3.776790649927e-05
    26   -8.030565230180e-05
    27    3.557565801449e-06
    28   -1.071969903233e-06
    29    6.373771161453e-16
    30    2.887983332583e-06
    31   -7.179216242558e-06
    32    1.264385509029e-04
    33    3.087901574627e-04
    34   -5.843313426579e-06
    35   -1.034833361492e-06
    36   -9.374090101206e-16
    37   -2.000910089900e-06
    38   -7.874282595752e-05
    39   -1.151936628168e-04
    40   -9.221207755892e-05
    41    1.189140912198e-05
    42    6.236085424620e-06
    43   -4.440535617906e-16
    44    6.488452145426e-07
    45   -2.241651887840e-06
    46   -7.675446281639e-06
    47   -2.990044165633e-07
    48    9.174604080337e-16
    49    1.488811281356e-05
    50    3.712700826875e-05
    51    3.971600197150e-06
    52   -2.286853486432e-15
    53    3.246480901955e-04
    54    1.268086474034e-04
    55   -1.175641205154e-05
    56    1.859123848860e-15
    57    3.217947171973e-04
    58    1.249485551669e-05
    59    1.779208983721e-04
    60    9.861154270181e-15
    61   -4.679352762570e-06
    62    3.164536287847e-16
    63   -1.353390185310e-15
    64    9.003810681006e-06
    65   -1.183067192265e-07
    66   -2.372057603152e-06
    67   -3.464030182839e-06
    68   -5.949087677774e-07
    69    1.358535352895e-07
    70   -2.361407709109e-16
    71    1.061656066289e-05
    72    4.929998668252e-06
    73   -1.352970713881e-06
    74   -2.179051061669e-16
    75   -3.837989707316e-05
    76   -2.151298168687e-05
    77    3.820154124628e-06
    78    2.441000138604e-15
    79    2.343822682512e-04
    80    1.376151953198e-04
    81   -4.361725502749e-05
    82   -3.068190691606e-15
    83   -4.370717025101e-07
    84    3.377355469941e-16
    85   -2.095203095226e-16
    86   -2.362216077447e-07
    87    2.300590461247e-07
    88   -5.756109226337e-06
    89    7.476897476691e-05
    90   -5.949955974012e-05
    91   -4.520734937434e-05
    92    1.055838302794e-15
    93   -3.196934141875e-04
    94   -3.320933063692e-04
    95   -2.013711962219e-04
    96   -1.618303597837e-15
    97    1.668116987544e-04
    98   -7.416697551149e-04
    99   -5.698871528237e-04
   100   -2.168745431182e-16
   101    2.394395709944e-03
   102    6.655006535397e-04
   103   -5.411566991164e-04
   104   -1.424335047298e-15
   105    5.049074380118e-05
   106   -9.451774826702e-16
   107    6.709438258951e-16
   108   -8.039538726945e-05
   109   -1.730378488315e-04
   110   -5.514576816843e-01
   111   -4.716891518952e-01
   112    1.524957785850e-03
   113    8.912922464969e-04
   114   -1.679775872550e-15
   115   -5.604862570956e-03
   116   -5.979772328633e-04
   117   -3.408194397862e-04
   118    2.514820066581e-15
   119    1.528744668995e-03
   120    8.237108410723e-05
   121    4.486709136978e-05
   122   -3.544967940369e-15
   123   -1.166194581753e-03
   124   -2.476867343066e-05
   125   -1.588644368560e-05
   126    6.197627036794e-15
   127    1.033382932918e-04
   128   -8.858223513567e-16
   129   -9.670725877696e-16
   130    3.543717165789e-05
   131    6.950154602249e-05
   132   -6.786345899326e-08
   133   -2.986171411720e-06
   134    8.573594397096e-06
   135   -5.457770788811e-07
   136   -6.214711966555e-16
   137    4.454557391864e-05
   138   -2.422363441872e-05
   139   -4.336641040510e-06
   140    4.668377435239e-16
   141   -3.923555861508e-04
   142    6.129715441133e-05
   143    3.294887446452e-04
   144   -1.633342732901e-16
   145    6.136302677662e-05
   146    6.113405706311e-04
   147    1.508887676774e-04
   148   -2.484848961317e-15
   149    8.599202973051e-06
   150   -6.080060854349e-16
   151    6.878393348800e-16
   152   -1.917927453108e-05
   153    1.123296706055e-05
   154    5.970432650493e-08
   155   -7.016024495234e-07
   156   -5.276235454391e-07
   157   -3.667941552170e-07
   158    1.229164810595e-15
   159    9.204988706468e-06
   160    2.106329474081e-06
   161    1.741509449693e-06
   162   -2.826338247436e-15
   163   -1.454768751137e-04
   164   -6.596519843682e-05
   165   -1.974100233319e-05
   166    7.123492807456e-15
   167   -2.446671048028e-04
   168    5.237579870053e-05
   169   -1.353580623183e-05
   170   -1.841421308639e-14
   171   -1.349053279895e-06
   172    1.714670813151e-15
   173   -1.412241816815e-16
   174   -8.182468081682e-07
   175   -3.006710086904e-07
   176   -8.238948686247e-07
   177   -2.322465480736e-06
   178    2.176399957881e-06
   179    1.484108262079e-05
   180   -5.997008599821e-16
   181    3.363189654196e-05
   182    2.144646762876e-06
   183   -6.898351051791e-05
   184    5.838278619571e-16
   185   -8.093017721302e-04
   186    6.560936277783e-04
   187   -1.781459333224e-04
   188    4.310217167845e-15
   189   -1.769660547315e-03
   190   -7.863689491504e-05
   191   -1.237110938004e-03
   192   -1.416821623740e-14
   193    7.114412006652e-06
   194   -9.683855093008e-16
   195   -9.808405085485e-16
   196    2.607243990312e-05
   197   -2.019220777784e-05
   198    5.009753045563e-06
   199   -1.363950071055e-04
   200   -2.087374866020e-04
   201   -3.777944409965e-04
   202    1.821071621891e-05
   203   -1.036719035302e-05
   204    7.827819421656e-16
Sym=X
Ene= 0.136121
Spin=Alpha
Occup=0
     1   -4.486897292169e-07
     2   -2.967225393789e-07
     3   -4.107457779338e-06
     4    4.640189942391e-06
     5   -3.236455502263e-16
     6    5.938889273862e-07
     7    1.745078139384e-05
     8   -1.472558506909e-05
     9    1.609692179577e-15
    10   -2.277514392470e-04
    11    6.621555285767e-05
    12    1.385242710167e-05
    13   -1.437239072436e-15
    14    5.728023375028e-04
    15    5.992062607938e-04
    16    1.530801791377e-04
    17   -8.272212049047e-15
    18    2.017636161298e-06
    19    1.017175349151e-16
    20    1.189787850587e-16
    21    3.572391776704e-06
    22    2.772675287587e-06
    23    4.263052272266e-06
    24    4.477981648546e-05
    25    8.028442739463e-05
    26    2.649736060702e-04
    27    1.005688548969e-05
    28   -7.300946076146e-06
    29   -8.750245061928e-17
    30   -4.225754942294e-06
    31    3.243570107371e-05
    32   -3.298487151018e-06
    33    8.429261454822e-05
    34   -1.858665428276e-06
    35    4.359594144442e-06
    36    6.786025689226e-16
    37    4.277480132769e-06
    38    4.823782960376e-05
    39    8.509816383893e-05
    40    3.361303086035e-04
    41    1.044660209776e-05
    42   -6.103944724052e-06
    43    8.270257824282e-16
    44    4.601154858654e-06
    45   -8.036550236218e-05
    46   -5.541005659856e-05
    47    3.337034672831e-05
    48   -9.163831149704e-16
    49    3.018416033746e-04
    50   -3.825620225605e-04
    51    2.301817369620e-04
    52    4.110733802018e-15
    53   -1.137652736944e-04
    54   -3.955334483350e-04
    55    2.259590243416e-04
    56   -4.710035695150e-15
    57    3.366174920157e-04
    58    5.984413958792e-04
    59   -4.237284212850e-04
    60   -6.655311849261e-15
    61   -4.715166670316e-05
    62   -8.768417821938e-16
    63   -6.126296356504e-16
    64    9.983760433413e-05
    65   -1.941814714144e-04
    66    5.515130367730e-01
    67    4.716638292718e-01
    68    1.591297346518e-03
    69   -9.445612577974e-04
    70    2.055891238800e-16
    71    5.423372460447e-03
    72   -6.725073383079e-04
    73    3.900028168958e-04
    74   -3.041917465000e-16
    75   -1.145199601597e-03
    76    1.701443390260e-04
    77   -1.067466257284e-04
    78   -1.031278960506e-15
    79    1.413327485832e-03
    80    3.973987062148e-05
    81   -6.889252711334e-06
    82    2.154875342516e-15
    83   -1.316960743893e-04
    84   -2.861546183195e-16
    85    2.834651206033e-16
    86   -4.021548602560e-05
    87    7.059010262488e-05
    88   -3.771231738239e-07
    89    3.039393128474e-07
    90   -3.429805543916e-06
    91    1.396961654226e-06
    92   -2.392764462766e-16
    93   -2.250300956106e-06
    94    1.365583636412e-05
    95   -7.418388063966e-06
    96    2.646172419517e-15
    97   -1.804826629984e-04
    98    1.089813256867e-04
    99   -2.689835288498e-05
   100   -3.702145087427e-15
   101    6.813764863559e-04
   102    1.197054822336e-04
   103   -6.569420617237e-04
   104   -1.782371653336e-14
   105    2.985459399817e-06
   106   -1.673031268336e-17
   107    2.349120315528e-17
   108   -6.078691905687e-06
   109    1.509350973361e-06
   110   -2.273729893508e-06
   111   -1.678473332703e-06
   112    6.660598594490e-07
   113   -6.733325231765e-07
   114    1.474103035457e-15
   115   -5.270794303065e-06
   116    9.551198378414e-07
   117    1.367696231600e-06
   118   -1.177960554997e-15
   119    2.182203366479e-05
   120   -9.065053000614e-06
   121   -4.932804225555e-06
   122   -1.825726124556e-15
   123   -1.757875986940e-04
   124    7.983133209281e-05
   125    7.277834128975e-05
   126    7.110318485171e-15
   127    3.977024733846e-07
   128    4.868499999962e-16
   129    1.076239901863e-15
   130    7.707119194587e-07
   131    2.967000037483e-07
   132    4.681447573895e-07
   133    6.922845860584e-07
   134    1.367077542705e-05
   135   -4.964705441121e-07
   136    4.816320103902e-16
   137   -2.300453620605e-05
   138   -3.953867764543e-05
   139    1.687701785980e-06
   140    2.319554029468e-17
   141    2.888191215033e-04
   142    3.297929893005e-05
   143   -2.260318911636e-04
   144   -2.102456893165e-15
   145    3.354156425165e-05
   146    4.924728047790e-04
   147   -6.764093195934e-05
   148    1.227812282423e-14
   149   -8.284606149560e-06
   150    2.081482279968e-16
   151   -7.261765609697e-16
   152    2.669193188395e-05
   153    8.999318537243e-06
   154    9.004095758221e-07
   155    1.183584000157e-06
   156    6.448803595889e-06
   157   -1.302587278486e-05
   158   -6.577431826122e-16
   159   -2.197313865217e-05
   160   -1.584664206692e-05
   161    3.316032346388e-05
   162    7.316438484006e-17
   163    2.426270703513e-04
   164    2.057695147565e-04
   165    5.963059531496e-05
   166   -8.268412138653e-16
   167   -4.118463472644e-06
   168    2.583160330248e-04
   169   -3.353840778334e-04
   170    7.686896868818e-15
   171   -8.549903610831e-06
   172   -2.547388526819e-16
   173    2.763572835873e-16
   174   -2.196698569014e-05
   175   -1.460897932280e-05
   176    1.565915773981e-07
   177   -6.956231673688e-07
   178    1.519338915570e-06
   179   -7.198248212463e-07
   180   -1.378374887811e-15
   181    1.026924823223e-05
   182   -8.734810485602e-06
   183    6.225819375096e-06
   184    5.076920730650e-16
   185   -2.396057150676e-05
   186    2.909680804312e-05
   187   -1.568513233303e-05
   188   -7.942866274545e-16
   189   -2.753337398735e-03
   190    4.156906916147e-04
   191   -2.676344380083e-04
   192    1.525598508792e-14
   193    4.822556272585e-06
   194   -1.520479003687e-17
   195   -3.652964122059e-16
   196    5.732364474196e-10
   197   -1.555449545473e-06
   198    1.593630228935e-06
   199   -4.937785691332e-06
   200   -1.392247079478e-05
   201   -1.651686065478e-04
   202   -1.025547077664e-06
   203    7.612611118774e-07
   204    8.070451433766e-16
[5D]
