[Molden Format]
[Atoms] (Angs)
  C      1    6     -0.00714236     -1.70213747     -0.00000000
  H      2    1     -2.06882847     -1.44022412      0.00000000
  H      3    1     -0.12337987     -2.77567521      0.00000000
  H      4    1      0.04651892      1.98813947     -0.00000000
  C      5    6     -1.21953563      0.40211669      0.00000000
  O      6    8     -2.25921553      1.03043814      0.00000000
  C      7    6      1.28797806      0.34644937     -0.00000000
  O      8    8      2.31273661      1.00537216     -0.00000000
  N      9    7      0.03446295      0.97739857     -0.00000000
  N     10    7     -1.17287765     -0.98229824      0.00000000
  C     11    6      1.20107039     -1.10433419     -0.00000000
  H     12    1      2.11220096     -1.67699125     -0.00000000
[GTO]
1    0
S    6    1.000000
   4.56324000E+03    1.96665000E-03 
   6.82024000E+02    1.52306000E-02 
   1.54973000E+02    7.61269000E-02 
   4.44553000E+01    2.60801000E-01 
   1.30290000E+01    6.16462000E-01 
   1.82773000E+00    2.21006000E-01 
SP   3    1.000000
   2.09642000E+01    1.14660000E-01   4.02487000E-02 
   4.80331000E+00    9.19999000E-01   2.37594000E-01 
   1.45933000E+00   -3.03068000E-03   8.15854000E-01 
SP   1    1.000000
   4.83456000E-01    1.00000000E+00   1.00000000E+00 
SP   1    1.000000
   1.45585000E-01    1.00000000E+00   1.00000000E+00 
SP   1    1.000000
   4.38000000E-02    1.00000000E+00   1.00000000E+00 
D    1    1.000000
   6.26000000E-01    1.00000000E+00 

2    0
S    3    1.000000
   3.38650000E+01    2.54938000E-02 
   5.09479000E+00    1.90373000E-01 
   1.15879000E+00    8.52161000E-01 
S    1    1.000000
   3.25840000E-01    1.00000000E+00 
S    1    1.000000
   1.02741000E-01    1.00000000E+00 
S    1    1.000000
   3.60000000E-02    1.00000000E+00 
P    1    1.000000
   7.50000000E-01    1.00000000E+00 

3    0
S    3    1.000000
   3.38650000E+01    2.54938000E-02 
   5.09479000E+00    1.90373000E-01 
   1.15879000E+00    8.52161000E-01 
S    1    1.000000
   3.25840000E-01    1.00000000E+00 
S    1    1.000000
   1.02741000E-01    1.00000000E+00 
S    1    1.000000
   3.60000000E-02    1.00000000E+00 
P    1    1.000000
   7.50000000E-01    1.00000000E+00 

4    0
S    3    1.000000
   3.38650000E+01    2.54938000E-02 
   5.09479000E+00    1.90373000E-01 
   1.15879000E+00    8.52161000E-01 
S    1    1.000000
   3.25840000E-01    1.00000000E+00 
S    1    1.000000
   1.02741000E-01    1.00000000E+00 
S    1    1.000000
   3.60000000E-02    1.00000000E+00 
P    1    1.000000
   7.50000000E-01    1.00000000E+00 

5    0
S    6    1.000000
   4.56324000E+03    1.96665000E-03 
   6.82024000E+02    1.52306000E-02 
   1.54973000E+02    7.61269000E-02 
   4.44553000E+01    2.60801000E-01 
   1.30290000E+01    6.16462000E-01 
   1.82773000E+00    2.21006000E-01 
SP   3    1.000000
   2.09642000E+01    1.14660000E-01   4.02487000E-02 
   4.80331000E+00    9.19999000E-01   2.37594000E-01 
   1.45933000E+00   -3.03068000E-03   8.15854000E-01 
SP   1    1.000000
   4.83456000E-01    1.00000000E+00   1.00000000E+00 
SP   1    1.000000
   1.45585000E-01    1.00000000E+00   1.00000000E+00 
SP   1    1.000000
   4.38000000E-02    1.00000000E+00   1.00000000E+00 
D    1    1.000000
   6.26000000E-01    1.00000000E+00 

6    0
S    6    1.000000
   8.58850000E+03    1.89515000E-03 
   1.29723000E+03    1.43859000E-02 
   2.99296000E+02    7.07320000E-02 
   8.73771000E+01    2.40001000E-01 
   2.56789000E+01    5.94797000E-01 
   3.74004000E+00    2.80802000E-01 
SP   3    1.000000
   4.21175000E+01    1.13889000E-01   3.65114000E-02 
   9.62837000E+00    9.20811000E-01   2.37153000E-01 
   2.85332000E+00   -3.27447000E-03   8.19702000E-01 
SP   1    1.000000
   9.05661000E-01    1.00000000E+00   1.00000000E+00 
SP   1    1.000000
   2.55611000E-01    1.00000000E+00   1.00000000E+00 
SP   1    1.000000
   8.45000000E-02    1.00000000E+00   1.00000000E+00 
D    1    1.000000
   1.29200000E+00    1.00000000E+00 

7    0
S    6    1.000000
   4.56324000E+03    1.96665000E-03 
   6.82024000E+02    1.52306000E-02 
   1.54973000E+02    7.61269000E-02 
   4.44553000E+01    2.60801000E-01 
   1.30290000E+01    6.16462000E-01 
   1.82773000E+00    2.21006000E-01 
SP   3    1.000000
   2.09642000E+01    1.14660000E-01   4.02487000E-02 
   4.80331000E+00    9.19999000E-01   2.37594000E-01 
   1.45933000E+00   -3.03068000E-03   8.15854000E-01 
SP   1    1.000000
   4.83456000E-01    1.00000000E+00   1.00000000E+00 
SP   1    1.000000
   1.45585000E-01    1.00000000E+00   1.00000000E+00 
SP   1    1.000000
   4.38000000E-02    1.00000000E+00   1.00000000E+00 
D    1    1.000000
   6.26000000E-01    1.00000000E+00 

8    0
S    6    1.000000
   8.58850000E+03    1.89515000E-03 
   1.29723000E+03    1.43859000E-02 
   2.99296000E+02    7.07320000E-02 
   8.73771000E+01    2.40001000E-01 
   2.56789000E+01    5.94797000E-01 
   3.74004000E+00    2.80802000E-01 
SP   3    1.000000
   4.21175000E+01    1.13889000E-01   3.65114000E-02 
   9.62837000E+00    9.20811000E-01   2.37153000E-01 
   2.85332000E+00   -3.27447000E-03   8.19702000E-01 
SP   1    1.000000
   9.05661000E-01    1.00000000E+00   1.00000000E+00 
SP   1    1.000000
   2.55611000E-01    1.00000000E+00   1.00000000E+00 
SP   1    1.000000
   8.45000000E-02    1.00000000E+00   1.00000000E+00 
D    1    1.000000
   1.29200000E+00    1.00000000E+00 

9    0
S    6    1.000000
   6.29348000E+03    1.96979000E-03 
   9.49044000E+02    1.49613000E-02 
   2.18776000E+02    7.35006000E-02 
   6.36916000E+01    2.48937000E-01 
   1.88282000E+01    6.02460000E-01 
   2.72023000E+00    2.56202000E-01 
SP   3    1.000000
   3.06331000E+01    1.11906000E-01   3.83119000E-02 
   7.02614000E+00    9.21666000E-01   2.37403000E-01 
   2.11205000E+00   -2.56919000E-03   8.17592000E-01 
SP   1    1.000000
   6.84009000E-01    1.00000000E+00   1.00000000E+00 
SP   1    1.000000
   2.00878000E-01    1.00000000E+00   1.00000000E+00 
SP   1    1.000000
   6.39000000E-02    1.00000000E+00   1.00000000E+00 
D    1    1.000000
   9.13000000E-01    1.00000000E+00 

10    0
S    6    1.000000
   6.29348000E+03    1.96979000E-03 
   9.49044000E+02    1.49613000E-02 
   2.18776000E+02    7.35006000E-02 
   6.36916000E+01    2.48937000E-01 
   1.88282000E+01    6.02460000E-01 
   2.72023000E+00    2.56202000E-01 
SP   3    1.000000
   3.06331000E+01    1.11906000E-01   3.83119000E-02 
   7.02614000E+00    9.21666000E-01   2.37403000E-01 
   2.11205000E+00   -2.56919000E-03   8.17592000E-01 
SP   1    1.000000
   6.84009000E-01    1.00000000E+00   1.00000000E+00 
SP   1    1.000000
   2.00878000E-01    1.00000000E+00   1.00000000E+00 
SP   1    1.000000
   6.39000000E-02    1.00000000E+00   1.00000000E+00 
D    1    1.000000
   9.13000000E-01    1.00000000E+00 

11    0
S    6    1.000000
   4.56324000E+03    1.96665000E-03 
   6.82024000E+02    1.52306000E-02 
   1.54973000E+02    7.61269000E-02 
   4.44553000E+01    2.60801000E-01 
   1.30290000E+01    6.16462000E-01 
   1.82773000E+00    2.21006000E-01 
SP   3    1.000000
   2.09642000E+01    1.14660000E-01   4.02487000E-02 
   4.80331000E+00    9.19999000E-01   2.37594000E-01 
   1.45933000E+00   -3.03068000E-03   8.15854000E-01 
SP   1    1.000000
   4.83456000E-01    1.00000000E+00   1.00000000E+00 
SP   1    1.000000
   1.45585000E-01    1.00000000E+00   1.00000000E+00 
SP   1    1.000000
   4.38000000E-02    1.00000000E+00   1.00000000E+00 
D    1    1.000000
   6.26000000E-01    1.00000000E+00 

12    0
S    3    1.000000
   3.38650000E+01    2.54938000E-02 
   5.09479000E+00    1.90373000E-01 
   1.15879000E+00    8.52161000E-01 
S    1    1.000000
   3.25840000E-01    1.00000000E+00 
S    1    1.000000
   1.02741000E-01    1.00000000E+00 
S    1    1.000000
   3.60000000E-02    1.00000000E+00 
P    1    1.000000
   7.50000000E-01    1.00000000E+00 

[MO]
Sym=X
Ene= -0.483398
Spin=Alpha
Occup=1
     1    3.948816415087e-15
     2    8.228018392113e-15
     3    1.523980346653e-14
     4    2.331854179817e-14
     5    9.463233212944e-02
     6   -6.940792707361e-14
     7    2.727527464207e-14
     8    2.193103401961e-14
     9    1.550320459694e-01
    10    1.041184903632e-12
    11   -3.163963000679e-13
    12    8.432928411042e-13
    13    2.374347575665e-01
    14    4.080286174870e-11
    15    5.710877796030e-12
    16    1.137288195897e-11
    17    1.144089743358e-01
    18   -5.515052191994e-15
    19    1.142007767903e-02
    20   -2.938362041225e-03
    21   -6.789569073743e-15
    22   -5.243447416434e-15
    23   -3.632244612228e-15
    24   -2.906650554723e-13
    25   -9.965272988182e-13
    26   -1.928470413285e-12
    27   -2.314005668736e-14
    28   -9.524045868605e-15
    29   -8.522237847752e-03
    30   -7.589036907981e-15
    31    4.021575928751e-14
    32    6.056929572205e-13
    33    3.997175201526e-12
    34    3.543061364892e-15
    35   -5.243609673941e-15
    36    9.632719492929e-03
    37    6.872831709056e-15
    38    1.894703229470e-13
    39   -3.882163472199e-13
    40    2.270587395987e-12
    41    3.861135868623e-16
    42   -8.853218137433e-15
    43    1.154092768886e-02
    44    5.197056688719e-15
    45    6.924736613307e-15
    46   -8.669764008564e-15
    47    1.690889795330e-16
    48    1.756329074234e-02
    49   -4.054773789553e-14
    50    1.893319200228e-15
    51   -2.737681752495e-14
    52    3.121352611722e-02
    53    1.864331869243e-13
    54    2.794504655883e-13
    55    4.167688457439e-13
    56    2.398466891569e-02
    57   -9.463904678886e-12
    58   -2.545004689515e-12
    59    8.196028773615e-13
    60   -5.654412623567e-03
    61   -1.582348134859e-14
    62    1.951120680480e-02
    63    1.775754562052e-02
    64   -5.697198537224e-15
    65   -1.265482199322e-14
    66   -4.867472662433e-15
    67   -8.192394747911e-15
    68    1.710560112291e-16
    69   -1.714544417773e-14
    70   -1.850279485620e-02
    71    1.856114707961e-14
    72    1.773029970052e-14
    73    2.496988592306e-15
    74   -2.795753283246e-02
    75    1.276029422443e-13
    76   -8.718960159280e-14
    77   -2.147343313853e-13
    78   -3.534441859966e-02
    79   -2.813523508595e-13
    80    1.052304071905e-13
    81    6.354090753610e-13
    82   -1.460239811248e-02
    83   -1.229550471384e-15
    84    6.866118498543e-04
    85    1.049245806054e-03
    86   -4.080596429306e-16
    87   -1.166295583406e-15
    88    3.983903077493e-15
    89    6.943668701505e-15
    90    9.986465829962e-16
    91   -1.644391697961e-14
    92   -2.227164082031e-01
    93    5.541454170909e-14
    94   -5.624585910259e-15
    95   -1.824210763306e-14
    96   -3.845142774060e-01
    97   -1.219115703825e-12
    98    2.130514521394e-13
    99   -2.641895872801e-13
   100   -5.560720810938e-01
   101    1.591647967341e-11
   102    8.485475857205e-13
   103   -3.951962602134e-12
   104   -1.734701400438e-01
   105    7.916646546524e-15
   106   -1.544122590695e-03
   107    1.155961237373e-02
   108   -8.441289850499e-15
   109    5.120437213929e-15
   110   -7.275478782612e-16
   111   -1.211993324669e-15
   112   -1.823931930512e-14
   113    1.699588350089e-14
   114    2.075571747960e-01
   115   -1.390763582720e-14
   116   -3.876010376571e-14
   117    6.407208689056e-15
   118    2.811075480448e-01
   119    1.819597589093e-13
   120    3.756358855554e-14
   121   -1.399843723273e-14
   122    2.910693997148e-01
   123   -5.827013202338e-13
   124   -6.829550986368e-13
   125   -3.269706033943e-13
   126    9.127346821027e-02
   127    3.392464824552e-15
   128    7.825603388373e-03
   129    6.616552316804e-03
   130    8.532688270904e-16
   131   -2.615627279061e-15
   132    5.490727532585e-16
   133   -2.969184352635e-15
   134   -5.278410928403e-15
   135    8.232568174358e-15
   136    8.700896815954e-02
   137    2.726806702331e-14
   138   -1.723574575260e-14
   139    5.200269448001e-14
   140    1.333780610711e-01
   141   -4.463873211809e-13
   142    2.272902422193e-13
   143   -4.064599871620e-13
   144    2.406338093592e-01
   145    6.579911114237e-12
   146   -1.098806930050e-13
   147   -1.795357243961e-12
   148    1.725459060821e-01
   149    8.530153843675e-15
   150   -1.985600972173e-02
   151    8.052997683149e-03
   152   -4.247154836878e-15
   153   -4.704573385311e-15
   154   -8.336497156243e-16
   155   -4.458144922986e-15
   156    6.677677028873e-16
   157    1.253912657266e-14
   158   -6.479634907578e-02
   159   -4.358948607386e-15
   160    5.203579839575e-14
   161    3.490373517911e-14
   162   -1.002096454456e-01
   163    2.911235491091e-13
   164   -7.561816271142e-13
   165   -7.251905841120e-15
   166   -1.646035823590e-01
   167   -4.618488236711e-12
   168   -3.791734940787e-12
   169   -3.824106968859e-14
   170   -1.259919699968e-01
   171   -8.822524076743e-15
   172    8.155063528306e-03
   173   -4.365081953324e-03
   174    1.451548734340e-14
   175    7.253346509512e-15
   176    6.493449359030e-15
   177    1.164095688680e-14
   178   -1.311172078216e-14
   179    7.675559965377e-15
   180    6.828795637830e-03
   181   -3.625350955785e-14
   182    3.337172920522e-14
   183    2.652595857990e-14
   184    1.081028867806e-02
   185   -3.016645735387e-13
   186   -5.186138808326e-14
   187   -9.038873450333e-14
   188    7.006808052361e-02
   189   -4.774290617815e-11
   190    9.664660591282e-12
   191   -4.805050471272e-12
   192    4.069679079673e-02
   193   -9.533033977386e-15
   194   -1.619198535048e-02
   195   -3.339072818778e-02
   196   -2.055786141099e-15
   197   -5.337991055278e-15
   198    1.605814405251e-14
   199   -2.877783638040e-14
   200    7.173005916110e-13
   201   -4.622306852037e-12
   202    1.757024563535e-14
   203    5.360569332422e-16
   204    1.827761347089e-03
Sym=X
Ene= 0.483398
Spin=Alpha
Occup=0
     1   -2.599789500740e-15
     2   -1.343650871335e-14
     3    4.141517101407e-15
     4   -1.193569387163e-14
     5    1.284908497255e-02
     6    2.762205555544e-14
     7   -1.675472224517e-14
     8   -1.895877537946e-14
     9    3.938968390624e-02
    10    1.970498237669e-13
    11    3.725547700878e-13
    12   -1.245765937373e-13
    13    2.457010187628e-02
    14   -6.621816418716e-13
    15    2.347019631385e-12
    16   -9.909660355579e-13
    17   -5.382124278243e-01
    18   -1.766009148312e-14
    19   -1.410483226665e-02
    20   -8.399499692532e-03
    21    1.891019851859e-15
    22    1.878925353045e-14
    23    1.494366894999e-14
    24   -1.075323209233e-14
    25    6.383165946058e-13
    26    2.217168877453e-13
    27    5.278103400871e-15
    28    2.190252022875e-15
    29    9.046040216810e-04
    30    1.831499167257e-14
    31   -1.393368310232e-13
    32    5.649248903874e-13
    33    1.741857761953e-12
    34   -1.258929400819e-14
    35   -1.059584223500e-14
    36    6.844212464222e-03
    37   -6.703008081563e-16
    38    1.581976552332e-15
    39    5.289467742172e-13
    40   -1.260969794804e-12
    41    5.709320273257e-16
    42    1.937971171418e-14
    43   -4.701224354144e-04
    44   -2.057745030951e-15
    45   -3.326525122576e-15
    46    1.688336275341e-14
    47    3.051207153938e-15
    48   -1.669773856094e-02
    49   -1.089778103145e-14
    50    2.247618696511e-14
    51   -2.111793119061e-14
    52   -2.930301139613e-02
    53    6.050337810211e-14
    54    7.080314215343e-13
    55   -3.456067121001e-14
    56   -7.324153458669e-02
    57    3.192671047048e-12
    58    1.593521432859e-12
    59   -4.221953915809e-13
    60   -1.769746294280e+00
    61    1.411434432938e-14
    62   -9.142643337838e-03
    63    5.417667658828e-03
    64    4.385925077122e-15
    65    2.432170974771e-15
    66   -9.147150427981e-19
    67    3.009690555853e-15
    68   -6.294397625186e-15
    69    2.163049632518e-15
    70    4.710468217121e-02
    71   -1.086822732274e-14
    72   -1.362703119672e-14
    73    7.003813785442e-15
    74    8.296537245637e-02
    75    7.708587797535e-14
    76    9.137094679068e-14
    77   -3.182836087003e-14
    78    3.373567470661e-02
    79    1.581810556785e-12
    80    2.058175578868e-13
    81   -5.750178183085e-13
    82    4.969166553395e-01
    83    2.034572613614e-15
    84    1.023696348932e-03
    85   -9.046380583486e-04
    86    1.057481197456e-15
    87   -7.554353678195e-16
    88    1.056430230181e-15
    89    5.372102930802e-16
    90   -4.515529572624e-15
    91    7.474121240279e-15
    92    2.462094108768e-03
    93   -3.351546530235e-14
    94    3.594108661423e-15
    95   -2.620720809750e-14
    96    2.154119586251e-02
    97    5.325875155371e-13
    98   -3.236350696416e-13
    99    8.610054165211e-14
   100   -2.563974063512e-02
   101    9.652742542309e-13
   102   -5.176834375052e-12
   103    1.196317851765e-12
   104   -4.470092699598e-01
   105   -1.431756372563e-14
   106   -5.110097772185e-03
   107    1.583613254672e-02
   108    9.902147713444e-15
   109   -5.568914561827e-15
   110    1.355837504349e-16
   111    3.406256554486e-16
   112    3.088764479249e-15
   113   -1.443820064535e-14
   114   -2.840009034575e-02
   115   -4.615166077992e-16
   116    2.270392689370e-14
   117   -2.062925533076e-14
   118   -3.684289315859e-02
   119    7.952695870431e-15
   120   -1.015635884545e-13
   121   -5.513142257918e-14
   122   -6.053301088950e-02
   123    6.843764077870e-13
   124    6.849137726472e-13
   125    1.314991325673e-13
   126    1.746021734099e-01
   127   -3.103574903424e-15
   128    2.384286981769e-03
   129   -1.450535566935e-04
   130   -1.501555243685e-15
   131   -2.139059461883e-16
   132    9.264288511585e-15
   133    1.692800410561e-14
   134    1.619563625486e-14
   135   -2.492999724208e-14
   136    4.139207266545e-02
   137   -4.714791102110e-14
   138    2.384342320883e-14
   139   -6.038968382684e-14
   140    6.867565657046e-02
   141   -2.091799084243e-13
   142    1.238320711407e-13
   143    1.770175893336e-13
   144    8.768990950546e-02
   145   -7.580924398629e-12
   146    4.404379223998e-14
   147    9.137408178312e-13
   148    2.492778232115e-01
   149    3.885589120575e-16
   150    7.338208306974e-03
   151   -4.590704481608e-04
   152   -2.915749360218e-15
   153    5.875202882114e-15
   154    7.568886804101e-15
   155    1.013076901248e-14
   156    4.504380954120e-15
   157    2.980209075420e-15
   158    2.180280894480e-02
   159   -1.862356675921e-14
   160   -2.965530638320e-15
   161   -1.848647550529e-14
   162    4.474082239715e-02
   163   -2.461798062414e-13
   164    9.225164046944e-14
   165    4.812080404254e-14
   166    4.905918962780e-03
   167    2.288281969900e-12
   168    1.251196744712e-12
   169   -9.100220702222e-13
   170    5.482310650176e-01
   171    1.467032887190e-15
   172    2.955478853847e-03
   173   -6.044088729970e-03
   174   -1.700748225298e-15
   175   -7.730885937706e-16
   176   -1.060905375167e-14
   177   -2.357552872940e-14
   178    3.103576787027e-16
   179   -1.130526060001e-14
   180   -7.989563733665e-02
   181    7.430407467190e-14
   182    3.930909115372e-14
   183   -3.002499196676e-14
   184   -9.624000243583e-02
   185    7.965206699553e-14
   186    1.671506632565e-13
   187    1.036113234710e-13
   188   -3.873573695824e-01
   189   -4.679893866829e-12
   190    3.603833845883e-12
   191    3.938927945855e-12
   192    1.744037943701e+00
   193   -4.563204102676e-15
   194    6.782443931766e-03
   195   -9.987754642065e-03
   196    9.752048108534e-15
   197   -6.424363483849e-15
   198    1.699006843900e-14
   199    1.235457230919e-14
   200    3.308867454873e-13
   201    1.364658589517e-12
   202   -8.334845797326e-15
   203   -2.813830897182e-16
   204    3.898741130114e-03
[5D]
