[Molden Format]
[Atoms] (Angs)
  C      1    6     -0.00714236     -1.70213747     -0.00000000
  H      2    1     -2.06882847     -1.44022412      0.00000000
  H      3    1     -0.12337987     -2.77567521      0.00000000
  H      4    1      0.04651892      1.98813947     -0.00000000
  C      5    6     -1.21953563      0.40211669      0.00000000
  O      6    8     -2.25921553      1.03043814      0.00000000
  C      7    6      1.28797806      0.34644937     -0.00000000
  O      8    8      2.31273661      1.00537216     -0.00000000
  N      9    7      0.03446295      0.97739857     -0.00000000
  N     10    7     -1.17287765     -0.98229824      0.00000000
  C     11    6      1.20107039     -1.10433419     -0.00000000
  H     12    1      2.11220096     -1.67699125     -0.00000000
[GTO]
1    0
S    6    1.000000
   4.56324000E+03    1.96665000E-03 
   6.82024000E+02    1.52306000E-02 
   1.54973000E+02    7.61269000E-02 
   4.44553000E+01    2.60801000E-01 
   1.30290000E+01    6.16462000E-01 
   1.82773000E+00    2.21006000E-01 
SP   3    1.000000
   2.09642000E+01    1.14660000E-01   4.02487000E-02 
   4.80331000E+00    9.19999000E-01   2.37594000E-01 
   1.45933000E+00   -3.03068000E-03   8.15854000E-01 
SP   1    1.000000
   4.83456000E-01    1.00000000E+00   1.00000000E+00 
SP   1    1.000000
   1.45585000E-01    1.00000000E+00   1.00000000E+00 
SP   1    1.000000
   4.38000000E-02    1.00000000E+00   1.00000000E+00 
D    1    1.000000
   6.26000000E-01    1.00000000E+00 

2    0
S    3    1.000000
   3.38650000E+01    2.54938000E-02 
   5.09479000E+00    1.90373000E-01 
   1.15879000E+00    8.52161000E-01 
S    1    1.000000
   3.25840000E-01    1.00000000E+00 
S    1    1.000000
   1.02741000E-01    1.00000000E+00 
S    1    1.000000
   3.60000000E-02    1.00000000E+00 
P    1    1.000000
   7.50000000E-01    1.00000000E+00 

3    0
S    3    1.000000
   3.38650000E+01    2.54938000E-02 
   5.09479000E+00    1.90373000E-01 
   1.15879000E+00    8.52161000E-01 
S    1    1.000000
   3.25840000E-01    1.00000000E+00 
S    1    1.000000
   1.02741000E-01    1.00000000E+00 
S    1    1.000000
   3.60000000E-02    1.00000000E+00 
P    1    1.000000
   7.50000000E-01    1.00000000E+00 

4    0
S    3    1.000000
   3.38650000E+01    2.54938000E-02 
   5.09479000E+00    1.90373000E-01 
   1.15879000E+00    8.52161000E-01 
S    1    1.000000
   3.25840000E-01    1.00000000E+00 
S    1    1.000000
   1.02741000E-01    1.00000000E+00 
S    1    1.000000
   3.60000000E-02    1.00000000E+00 
P    1    1.000000
   7.50000000E-01    1.00000000E+00 

5    0
S    6    1.000000
   4.56324000E+03    1.96665000E-03 
   6.82024000E+02    1.52306000E-02 
   1.54973000E+02    7.61269000E-02 
   4.44553000E+01    2.60801000E-01 
   1.30290000E+01    6.16462000E-01 
   1.82773000E+00    2.21006000E-01 
SP   3    1.000000
   2.09642000E+01    1.14660000E-01   4.02487000E-02 
   4.80331000E+00    9.19999000E-01   2.37594000E-01 
   1.45933000E+00   -3.03068000E-03   8.15854000E-01 
SP   1    1.000000
   4.83456000E-01    1.00000000E+00   1.00000000E+00 
SP   1    1.000000
   1.45585000E-01    1.00000000E+00   1.00000000E+00 
SP   1    1.000000
   4.38000000E-02    1.00000000E+00   1.00000000E+00 
D    1    1.000000
   6.26000000E-01    1.00000000E+00 

6    0
S    6    1.000000
   8.58850000E+03    1.89515000E-03 
   1.29723000E+03    1.43859000E-02 
   2.99296000E+02    7.07320000E-02 
   8.73771000E+01    2.40001000E-01 
   2.56789000E+01    5.94797000E-01 
   3.74004000E+00    2.80802000E-01 
SP   3    1.000000
   4.21175000E+01    1.13889000E-01   3.65114000E-02 
   9.62837000E+00    9.20811000E-01   2.37153000E-01 
   2.85332000E+00   -3.27447000E-03   8.19702000E-01 
SP   1    1.000000
   9.05661000E-01    1.00000000E+00   1.00000000E+00 
SP   1    1.000000
   2.55611000E-01    1.00000000E+00   1.00000000E+00 
SP   1    1.000000
   8.45000000E-02    1.00000000E+00   1.00000000E+00 
D    1    1.000000
   1.29200000E+00    1.00000000E+00 

7    0
S    6    1.000000
   4.56324000E+03    1.96665000E-03 
   6.82024000E+02    1.52306000E-02 
   1.54973000E+02    7.61269000E-02 
   4.44553000E+01    2.60801000E-01 
   1.30290000E+01    6.16462000E-01 
   1.82773000E+00    2.21006000E-01 
SP   3    1.000000
   2.09642000E+01    1.14660000E-01   4.02487000E-02 
   4.80331000E+00    9.19999000E-01   2.37594000E-01 
   1.45933000E+00   -3.03068000E-03   8.15854000E-01 
SP   1    1.000000
   4.83456000E-01    1.00000000E+00   1.00000000E+00 
SP   1    1.000000
   1.45585000E-01    1.00000000E+00   1.00000000E+00 
SP   1    1.000000
   4.38000000E-02    1.00000000E+00   1.00000000E+00 
D    1    1.000000
   6.26000000E-01    1.00000000E+00 

8    0
S    6    1.000000
   8.58850000E+03    1.89515000E-03 
   1.29723000E+03    1.43859000E-02 
   2.99296000E+02    7.07320000E-02 
   8.73771000E+01    2.40001000E-01 
   2.56789000E+01    5.94797000E-01 
   3.74004000E+00    2.80802000E-01 
SP   3    1.000000
   4.21175000E+01    1.13889000E-01   3.65114000E-02 
   9.62837000E+00    9.20811000E-01   2.37153000E-01 
   2.85332000E+00   -3.27447000E-03   8.19702000E-01 
SP   1    1.000000
   9.05661000E-01    1.00000000E+00   1.00000000E+00 
SP   1    1.000000
   2.55611000E-01    1.00000000E+00   1.00000000E+00 
SP   1    1.000000
   8.45000000E-02    1.00000000E+00   1.00000000E+00 
D    1    1.000000
   1.29200000E+00    1.00000000E+00 

9    0
S    6    1.000000
   6.29348000E+03    1.96979000E-03 
   9.49044000E+02    1.49613000E-02 
   2.18776000E+02    7.35006000E-02 
   6.36916000E+01    2.48937000E-01 
   1.88282000E+01    6.02460000E-01 
   2.72023000E+00    2.56202000E-01 
SP   3    1.000000
   3.06331000E+01    1.11906000E-01   3.83119000E-02 
   7.02614000E+00    9.21666000E-01   2.37403000E-01 
   2.11205000E+00   -2.56919000E-03   8.17592000E-01 
SP   1    1.000000
   6.84009000E-01    1.00000000E+00   1.00000000E+00 
SP   1    1.000000
   2.00878000E-01    1.00000000E+00   1.00000000E+00 
SP   1    1.000000
   6.39000000E-02    1.00000000E+00   1.00000000E+00 
D    1    1.000000
   9.13000000E-01    1.00000000E+00 

10    0
S    6    1.000000
   6.29348000E+03    1.96979000E-03 
   9.49044000E+02    1.49613000E-02 
   2.18776000E+02    7.35006000E-02 
   6.36916000E+01    2.48937000E-01 
   1.88282000E+01    6.02460000E-01 
   2.72023000E+00    2.56202000E-01 
SP   3    1.000000
   3.06331000E+01    1.11906000E-01   3.83119000E-02 
   7.02614000E+00    9.21666000E-01   2.37403000E-01 
   2.11205000E+00   -2.56919000E-03   8.17592000E-01 
SP   1    1.000000
   6.84009000E-01    1.00000000E+00   1.00000000E+00 
SP   1    1.000000
   2.00878000E-01    1.00000000E+00   1.00000000E+00 
SP   1    1.000000
   6.39000000E-02    1.00000000E+00   1.00000000E+00 
D    1    1.000000
   9.13000000E-01    1.00000000E+00 

11    0
S    6    1.000000
   4.56324000E+03    1.96665000E-03 
   6.82024000E+02    1.52306000E-02 
   1.54973000E+02    7.61269000E-02 
   4.44553000E+01    2.60801000E-01 
   1.30290000E+01    6.16462000E-01 
   1.82773000E+00    2.21006000E-01 
SP   3    1.000000
   2.09642000E+01    1.14660000E-01   4.02487000E-02 
   4.80331000E+00    9.19999000E-01   2.37594000E-01 
   1.45933000E+00   -3.03068000E-03   8.15854000E-01 
SP   1    1.000000
   4.83456000E-01    1.00000000E+00   1.00000000E+00 
SP   1    1.000000
   1.45585000E-01    1.00000000E+00   1.00000000E+00 
SP   1    1.000000
   4.38000000E-02    1.00000000E+00   1.00000000E+00 
D    1    1.000000
   6.26000000E-01    1.00000000E+00 

12    0
S    3    1.000000
   3.38650000E+01    2.54938000E-02 
   5.09479000E+00    1.90373000E-01 
   1.15879000E+00    8.52161000E-01 
S    1    1.000000
   3.25840000E-01    1.00000000E+00 
S    1    1.000000
   1.02741000E-01    1.00000000E+00 
S    1    1.000000
   3.60000000E-02    1.00000000E+00 
P    1    1.000000
   7.50000000E-01    1.00000000E+00 

[MO]
Sym=X
Ene= -0.488933
Spin=Alpha
Occup=1
     1    3.699309737331e-03
     2    6.115062403365e-03
     3    1.758843627286e-03
     4    1.508307728489e-02
     5   -5.267224460538e-14
     6   -8.624336946876e-03
     7   -2.568252517120e-03
     8    1.758130921339e-02
     9   -5.787490850489e-14
    10   -3.076249952111e-01
    11    1.024834226725e-01
    12   -1.221889249114e-01
    13   -7.018683112710e-14
    14   -8.156450832177e+00
    15    2.142270620840e-01
    16   -1.853285048760e+00
    17    4.126234642162e-13
    18   -1.326407194243e-02
    19    5.631315425532e-15
    20    1.214605238090e-14
    21   -7.343957188760e-03
    22    5.348946658418e-03
    23    7.442225029612e-03
    24    7.580113918497e-02
    25   -2.612945840303e-01
    26   -5.503618493658e-01
    27    7.028211805975e-03
    28    3.110479794139e-03
    29    1.347718479422e-14
    30    1.112543045569e-02
    31    9.115806261874e-03
    32    1.093972468504e-01
    33    4.990242953925e-01
    34    7.602675611029e-04
    35   -7.421457810752e-03
    36   -4.349541610180e-15
    37    2.185606856299e-02
    38    1.341342748541e-01
    39    4.139895256390e-01
    40    1.909321185750e+00
    41   -7.719063335559e-04
    42    2.738199683896e-03
    43    1.745909464891e-15
    44    2.057725722348e-03
    45    2.902181952378e-03
    46   -4.026497368125e-03
    47   -4.166482269096e-03
    48    2.117996599646e-15
    49    1.326194053242e-02
    50   -5.480436792099e-03
    51   -4.310365910362e-04
    52   -3.260112342750e-14
    53   -3.230932709931e-01
    54   -2.309897105200e-01
    55    1.139092345912e-01
    56    1.244701682586e-13
    57    4.704919309033e-01
    58    1.685417324678e-02
    59   -8.756710113153e-01
    60    2.068472058562e-14
    61   -1.336100829135e-02
    62   -9.476000234573e-15
    63    5.162193729293e-16
    64    9.923267763644e-03
    65   -4.394627804853e-03
    66   -3.847667029328e-03
    67   -6.761502142168e-03
    68    6.498354438076e-03
    69   -1.435784840742e-02
    70   -3.113715628012e-15
    71    2.639819450970e-02
    72    6.038788778147e-03
    73   -1.839761360728e-02
    74   -1.842952605356e-14
    75   -4.799714231454e-02
    76    1.010232454886e-02
    77   -2.741158391013e-02
    78   -2.600260236988e-14
    79    1.595087768451e-01
    80   -1.048062860077e-02
    81    7.403940096951e-02
    82    3.541454279372e-14
    83   -1.331699746750e-03
    84    1.815891080893e-15
    85   -2.320233070007e-15
    86   -1.119146113140e-03
    87   -5.022556233063e-04
    88   -8.521932300050e-04
    89   -2.669125799768e-03
    90   -1.799783927930e-02
    91   -2.901727940942e-02
    92    1.839953903581e-14
    93    6.146486487733e-02
    94   -3.588887658374e-02
    95   -4.999326436248e-02
    96    1.066954231061e-13
    97   -7.206083957473e-01
    98   -1.601857032731e-02
    99   -1.702022660566e-01
   100    2.343106984725e-14
   101   -1.372967181446e+01
   102    1.738626305636e+00
   103    2.512284187827e+00
   104    2.695586762892e-13
   105   -2.575045496605e-02
   106   -2.461666053643e-15
   107   -6.691770227244e-15
   108    1.585394692149e-02
   109    2.071995737526e-02
   110   -1.019057086796e-02
   111   -1.761998136024e-02
   112   -3.665464964328e-02
   113   -3.633446285560e-02
   114   -2.611790899845e-14
   115    5.937088193684e-02
   116   -4.540251889912e-02
   117   -5.112010072110e-02
   118    4.537534120334e-15
   119    1.602854088832e-01
   120   -1.109094315110e-01
   121   -5.586122148343e-02
   122   -6.218161631738e-14
   123    8.964495029806e-01
   124   -1.792404547065e-01
   125   -2.010328210553e-01
   126   -1.271532036957e-13
   127   -4.370101037923e-03
   128   -3.815605470756e-15
   129   -2.391971244670e-15
   130   -2.289315271756e-03
   131    7.085815339026e-04
   132   -9.453884607266e-04
   133   -1.619619991920e-03
   134   -2.101503320853e-03
   135   -4.121660624992e-02
   136   -1.278541142499e-14
   137    6.568219549743e-03
   138   -5.459474628387e-03
   139   -6.258018887226e-02
   140    1.134855171644e-14
   141    7.931609025087e-02
   142    3.832015091290e-02
   143   -2.732653793739e-01
   144   -1.454560243490e-13
   145    2.580489775670e+00
   146    2.357205774318e-01
   147   -8.160298815621e-01
   148    5.959388318525e-14
   149   -1.008692906668e-02
   150    3.171895157734e-15
   151    2.902525851643e-15
   152   -9.381338427732e-03
   153   -3.959663919215e-03
   154   -5.733640457757e-03
   155   -9.547820979081e-03
   156   -4.819942960828e-03
   157   -6.635496784533e-03
   158    2.001301930073e-14
   159    2.191212647836e-02
   160   -1.175873584634e-02
   161   -1.268722737161e-02
   162    3.868962666630e-14
   163    2.338112680835e-01
   164    1.240638817077e-01
   165    5.858258999334e-02
   166    6.644911951748e-14
   167    1.694400937882e+00
   168   -5.792485412519e-02
   169   -5.573331164359e-01
   170   -3.777494668499e-13
   171   -7.057281890577e-03
   172   -1.043284399048e-14
   173    5.783128500011e-15
   174    3.293537089705e-05
   175    2.373899737335e-04
   176    1.870676140711e-04
   177    5.861365740448e-05
   178   -2.501110117854e-02
   179    1.861952688126e-02
   180    2.511582690692e-14
   181    2.097507404785e-03
   182   -3.618219585504e-02
   183    3.544562721501e-02
   184    7.428045635560e-14
   185    5.775640315923e-02
   186   -2.166583956640e-01
   187    1.740325992203e-01
   188   -2.076750233590e-14
   189    1.226774669642e+01
   190   -3.049651241290e+00
   191    3.193150606655e+00
   192   -3.013452109699e-13
   193   -1.875595720922e-02
   194    1.852677669400e-14
   195    3.897517486561e-15
   196   -3.275287907038e-03
   197   -1.549630176768e-02
   198    1.515327221049e-02
   199    4.492159893138e-02
   200    6.146014467724e-01
   201    2.909997967180e+00
   202    4.163769238491e-03
   203   -7.635712382281e-03
   204    2.719592674576e-15
Sym=X
Ene= 0.488933
Spin=Alpha
Occup=0
     1   -3.683691580603e-15
     2   -7.969866583231e-15
     3   -1.406732708473e-14
     4   -1.953262828617e-14
     5   -1.065238714122e-01
     6    6.840765045162e-14
     7   -2.672750432459e-14
     8   -8.695595885416e-15
     9   -1.745814270965e-01
    10   -9.415527473364e-13
    11    3.097602465250e-13
    12   -7.845983165442e-13
    13   -2.464127813904e-01
    14   -4.214199477671e-11
    15   -5.950191621274e-12
    16   -1.169557724370e-11
    17   -1.154281248691e-01
    18    4.163601268427e-15
    19   -1.140965951990e-02
    20    2.801723443307e-03
    21    4.774464516992e-15
    22    3.255550413732e-15
    23    2.635290188341e-15
    24    2.529053516935e-13
    25    9.513237225176e-13
    26    1.826043860475e-12
    27    2.104571259109e-14
    28    9.089482613518e-15
    29    8.341870117926e-03
    30    8.991666104543e-15
    31   -7.458180574881e-15
    32   -6.585670854701e-13
    33   -4.113085020787e-12
    34   -2.843993339412e-15
    35    4.551866474710e-15
    36   -1.038446305850e-02
    37   -6.817528938068e-15
    38   -1.707869937120e-13
    39    3.006877511025e-13
    40   -2.175610439758e-12
    41    1.797196081181e-15
    42    8.370852485258e-15
    43   -1.167504642074e-02
    44   -5.675764023294e-15
    45   -7.755486680243e-15
    46    8.233887256106e-15
    47   -2.332954519869e-15
    48   -1.828481269512e-02
    49    4.496489390850e-14
    50   -5.046601215387e-16
    51    2.369733365011e-14
    52   -3.222775077231e-02
    53   -2.330558821889e-13
    54   -3.049336049670e-13
    55   -4.108025778705e-13
    56   -2.323441036114e-02
    57    9.940035068203e-12
    58    2.555949975061e-12
    59   -1.071681574207e-12
    60    7.745944913540e-03
    61    1.655958490574e-14
    62   -1.982495882078e-02
    63   -1.813566017393e-02
    64    4.695005090204e-15
    65    1.102813613168e-14
    66    4.744878252228e-15
    67    8.160774838102e-15
    68   -4.500628004069e-17
    69    1.735489775185e-14
    70    1.753186697447e-02
    71   -2.050181447069e-14
    72   -1.483163745815e-14
    73    2.098689567147e-15
    74    2.610689392173e-02
    75   -1.036707178290e-13
    76    8.597936910670e-14
    77    1.965728963710e-13
    78    3.160428706597e-02
    79    1.831797180577e-13
    80   -1.233401575472e-13
    81   -5.652610697461e-13
    82    1.346820200648e-02
    83    7.926928578914e-16
    84   -8.263732137663e-04
    85   -9.588727253426e-04
    86   -1.899136675698e-16
    87    1.447696600600e-15
    88   -3.442195239371e-15
    89   -6.071052114126e-15
    90   -1.464234572755e-16
    91    1.491295609105e-14
    92    2.424088418453e-01
    93   -5.838263093612e-14
    94    8.076730986558e-15
    95    1.949402287225e-14
    96    4.162919118148e-01
    97    1.191348376581e-12
    98   -2.539270717826e-13
    99    2.825982415837e-13
   100    5.607285833875e-01
   101   -1.672953222521e-11
   102   -4.592282723658e-13
   103    3.990860103620e-12
   104    1.590367402714e-01
   105   -7.032170328646e-15
   106    5.346400695450e-03
   107   -8.716258964865e-03
   108    5.855981699502e-15
   109   -6.439565238531e-15
   110    8.269755860663e-16
   111    1.506585445842e-15
   112    1.579731458232e-14
   113   -1.379767369117e-14
   114   -1.616369547032e-01
   115    1.165556455196e-14
   116    3.556348836667e-14
   117   -3.886116110833e-15
   118   -2.186463845548e-01
   119   -1.756858335011e-13
   120   -2.470601244210e-14
   121    4.113919969659e-15
   122   -2.489031945348e-01
   123    6.176244302531e-13
   124    6.073214570164e-13
   125    2.806298795812e-13
   126   -9.410694875878e-02
   127   -3.626420888538e-15
   128   -1.027082302046e-02
   129   -8.076103241733e-03
   130   -2.700742768989e-16
   131    3.150937844189e-15
   132   -5.195506096293e-16
   133    2.798947108345e-15
   134    5.107907199911e-15
   135   -4.531824048702e-15
   136   -8.998536820976e-02
   137   -2.719457929731e-14
   138    1.960038242952e-14
   139   -3.858364288657e-14
   140   -1.361846274448e-01
   141    4.233739317924e-13
   142   -2.728834590825e-13
   143    3.523468984507e-13
   144   -2.357556520359e-01
   145   -6.120807617464e-12
   146    1.242745711369e-13
   147    1.845973388625e-12
   148   -1.727183170252e-01
   149   -7.583093630036e-15
   150    2.136957467344e-02
   151   -8.699133174573e-03
   152    4.329791624814e-15
   153    5.823217197397e-15
   154    1.074860952620e-15
   155    4.713830180061e-15
   156    1.108033483773e-15
   157   -1.342226126844e-14
   158    6.440850428285e-02
   159   -4.325848700585e-16
   160   -3.917330387829e-14
   161   -3.775931269463e-14
   162    9.823463872028e-02
   163   -2.566834884598e-13
   164    6.617043799387e-13
   165    8.106183206958e-15
   166    1.572471775949e-01
   167    4.431442828523e-12
   168    3.779541992610e-12
   169   -1.532125097065e-14
   170    1.282514546606e-01
   171    7.182429244648e-15
   172   -9.031939186651e-03
   173    4.808982632486e-03
   174   -1.291177184385e-14
   175   -6.367411340149e-15
   176   -5.330627363064e-15
   177   -1.030545415094e-14
   178    1.423985045082e-14
   179   -7.088159578427e-15
   180   -1.017924830334e-02
   181    3.141741861254e-14
   182   -3.017310976276e-14
   183   -1.824702318542e-14
   184   -1.554819705084e-02
   185    2.529673999007e-13
   186    8.219299312951e-14
   187    6.400683587326e-14
   188   -7.040617058154e-02
   189    4.933650109791e-11
   190   -1.024483506964e-11
   191    4.827507958866e-12
   192   -3.201609006819e-02
   193    9.614737514724e-15
   194    1.709950885525e-02
   195    3.582512924291e-02
   196    2.513405037288e-15
   197    6.082406157216e-15
   198   -1.457274525401e-14
   199    1.397448966140e-14
   200   -6.841301791680e-13
   201    4.745275361027e-12
   202   -1.599747452572e-14
   203   -3.249576703490e-16
   204   -2.066906975551e-03
[5D]
