[Molden Format]
[Atoms] (Angs)
  C      1    6     -0.00714236     -1.70213747     -0.00000000
  H      2    1     -2.06882847     -1.44022412      0.00000000
  H      3    1     -0.12337987     -2.77567521      0.00000000
  H      4    1      0.04651892      1.98813947     -0.00000000
  C      5    6     -1.21953563      0.40211669      0.00000000
  O      6    8     -2.25921553      1.03043814      0.00000000
  C      7    6      1.28797806      0.34644937     -0.00000000
  O      8    8      2.31273661      1.00537216     -0.00000000
  N      9    7      0.03446295      0.97739857     -0.00000000
  N     10    7     -1.17287765     -0.98229824      0.00000000
  C     11    6      1.20107039     -1.10433419     -0.00000000
  H     12    1      2.11220096     -1.67699125     -0.00000000
[GTO]
1    0
S    6    1.000000
   4.56324000E+03    1.96665000E-03 
   6.82024000E+02    1.52306000E-02 
   1.54973000E+02    7.61269000E-02 
   4.44553000E+01    2.60801000E-01 
   1.30290000E+01    6.16462000E-01 
   1.82773000E+00    2.21006000E-01 
SP   3    1.000000
   2.09642000E+01    1.14660000E-01   4.02487000E-02 
   4.80331000E+00    9.19999000E-01   2.37594000E-01 
   1.45933000E+00   -3.03068000E-03   8.15854000E-01 
SP   1    1.000000
   4.83456000E-01    1.00000000E+00   1.00000000E+00 
SP   1    1.000000
   1.45585000E-01    1.00000000E+00   1.00000000E+00 
SP   1    1.000000
   4.38000000E-02    1.00000000E+00   1.00000000E+00 
D    1    1.000000
   6.26000000E-01    1.00000000E+00 

2    0
S    3    1.000000
   3.38650000E+01    2.54938000E-02 
   5.09479000E+00    1.90373000E-01 
   1.15879000E+00    8.52161000E-01 
S    1    1.000000
   3.25840000E-01    1.00000000E+00 
S    1    1.000000
   1.02741000E-01    1.00000000E+00 
S    1    1.000000
   3.60000000E-02    1.00000000E+00 
P    1    1.000000
   7.50000000E-01    1.00000000E+00 

3    0
S    3    1.000000
   3.38650000E+01    2.54938000E-02 
   5.09479000E+00    1.90373000E-01 
   1.15879000E+00    8.52161000E-01 
S    1    1.000000
   3.25840000E-01    1.00000000E+00 
S    1    1.000000
   1.02741000E-01    1.00000000E+00 
S    1    1.000000
   3.60000000E-02    1.00000000E+00 
P    1    1.000000
   7.50000000E-01    1.00000000E+00 

4    0
S    3    1.000000
   3.38650000E+01    2.54938000E-02 
   5.09479000E+00    1.90373000E-01 
   1.15879000E+00    8.52161000E-01 
S    1    1.000000
   3.25840000E-01    1.00000000E+00 
S    1    1.000000
   1.02741000E-01    1.00000000E+00 
S    1    1.000000
   3.60000000E-02    1.00000000E+00 
P    1    1.000000
   7.50000000E-01    1.00000000E+00 

5    0
S    6    1.000000
   4.56324000E+03    1.96665000E-03 
   6.82024000E+02    1.52306000E-02 
   1.54973000E+02    7.61269000E-02 
   4.44553000E+01    2.60801000E-01 
   1.30290000E+01    6.16462000E-01 
   1.82773000E+00    2.21006000E-01 
SP   3    1.000000
   2.09642000E+01    1.14660000E-01   4.02487000E-02 
   4.80331000E+00    9.19999000E-01   2.37594000E-01 
   1.45933000E+00   -3.03068000E-03   8.15854000E-01 
SP   1    1.000000
   4.83456000E-01    1.00000000E+00   1.00000000E+00 
SP   1    1.000000
   1.45585000E-01    1.00000000E+00   1.00000000E+00 
SP   1    1.000000
   4.38000000E-02    1.00000000E+00   1.00000000E+00 
D    1    1.000000
   6.26000000E-01    1.00000000E+00 

6    0
S    6    1.000000
   8.58850000E+03    1.89515000E-03 
   1.29723000E+03    1.43859000E-02 
   2.99296000E+02    7.07320000E-02 
   8.73771000E+01    2.40001000E-01 
   2.56789000E+01    5.94797000E-01 
   3.74004000E+00    2.80802000E-01 
SP   3    1.000000
   4.21175000E+01    1.13889000E-01   3.65114000E-02 
   9.62837000E+00    9.20811000E-01   2.37153000E-01 
   2.85332000E+00   -3.27447000E-03   8.19702000E-01 
SP   1    1.000000
   9.05661000E-01    1.00000000E+00   1.00000000E+00 
SP   1    1.000000
   2.55611000E-01    1.00000000E+00   1.00000000E+00 
SP   1    1.000000
   8.45000000E-02    1.00000000E+00   1.00000000E+00 
D    1    1.000000
   1.29200000E+00    1.00000000E+00 

7    0
S    6    1.000000
   4.56324000E+03    1.96665000E-03 
   6.82024000E+02    1.52306000E-02 
   1.54973000E+02    7.61269000E-02 
   4.44553000E+01    2.60801000E-01 
   1.30290000E+01    6.16462000E-01 
   1.82773000E+00    2.21006000E-01 
SP   3    1.000000
   2.09642000E+01    1.14660000E-01   4.02487000E-02 
   4.80331000E+00    9.19999000E-01   2.37594000E-01 
   1.45933000E+00   -3.03068000E-03   8.15854000E-01 
SP   1    1.000000
   4.83456000E-01    1.00000000E+00   1.00000000E+00 
SP   1    1.000000
   1.45585000E-01    1.00000000E+00   1.00000000E+00 
SP   1    1.000000
   4.38000000E-02    1.00000000E+00   1.00000000E+00 
D    1    1.000000
   6.26000000E-01    1.00000000E+00 

8    0
S    6    1.000000
   8.58850000E+03    1.89515000E-03 
   1.29723000E+03    1.43859000E-02 
   2.99296000E+02    7.07320000E-02 
   8.73771000E+01    2.40001000E-01 
   2.56789000E+01    5.94797000E-01 
   3.74004000E+00    2.80802000E-01 
SP   3    1.000000
   4.21175000E+01    1.13889000E-01   3.65114000E-02 
   9.62837000E+00    9.20811000E-01   2.37153000E-01 
   2.85332000E+00   -3.27447000E-03   8.19702000E-01 
SP   1    1.000000
   9.05661000E-01    1.00000000E+00   1.00000000E+00 
SP   1    1.000000
   2.55611000E-01    1.00000000E+00   1.00000000E+00 
SP   1    1.000000
   8.45000000E-02    1.00000000E+00   1.00000000E+00 
D    1    1.000000
   1.29200000E+00    1.00000000E+00 

9    0
S    6    1.000000
   6.29348000E+03    1.96979000E-03 
   9.49044000E+02    1.49613000E-02 
   2.18776000E+02    7.35006000E-02 
   6.36916000E+01    2.48937000E-01 
   1.88282000E+01    6.02460000E-01 
   2.72023000E+00    2.56202000E-01 
SP   3    1.000000
   3.06331000E+01    1.11906000E-01   3.83119000E-02 
   7.02614000E+00    9.21666000E-01   2.37403000E-01 
   2.11205000E+00   -2.56919000E-03   8.17592000E-01 
SP   1    1.000000
   6.84009000E-01    1.00000000E+00   1.00000000E+00 
SP   1    1.000000
   2.00878000E-01    1.00000000E+00   1.00000000E+00 
SP   1    1.000000
   6.39000000E-02    1.00000000E+00   1.00000000E+00 
D    1    1.000000
   9.13000000E-01    1.00000000E+00 

10    0
S    6    1.000000
   6.29348000E+03    1.96979000E-03 
   9.49044000E+02    1.49613000E-02 
   2.18776000E+02    7.35006000E-02 
   6.36916000E+01    2.48937000E-01 
   1.88282000E+01    6.02460000E-01 
   2.72023000E+00    2.56202000E-01 
SP   3    1.000000
   3.06331000E+01    1.11906000E-01   3.83119000E-02 
   7.02614000E+00    9.21666000E-01   2.37403000E-01 
   2.11205000E+00   -2.56919000E-03   8.17592000E-01 
SP   1    1.000000
   6.84009000E-01    1.00000000E+00   1.00000000E+00 
SP   1    1.000000
   2.00878000E-01    1.00000000E+00   1.00000000E+00 
SP   1    1.000000
   6.39000000E-02    1.00000000E+00   1.00000000E+00 
D    1    1.000000
   9.13000000E-01    1.00000000E+00 

11    0
S    6    1.000000
   4.56324000E+03    1.96665000E-03 
   6.82024000E+02    1.52306000E-02 
   1.54973000E+02    7.61269000E-02 
   4.44553000E+01    2.60801000E-01 
   1.30290000E+01    6.16462000E-01 
   1.82773000E+00    2.21006000E-01 
SP   3    1.000000
   2.09642000E+01    1.14660000E-01   4.02487000E-02 
   4.80331000E+00    9.19999000E-01   2.37594000E-01 
   1.45933000E+00   -3.03068000E-03   8.15854000E-01 
SP   1    1.000000
   4.83456000E-01    1.00000000E+00   1.00000000E+00 
SP   1    1.000000
   1.45585000E-01    1.00000000E+00   1.00000000E+00 
SP   1    1.000000
   4.38000000E-02    1.00000000E+00   1.00000000E+00 
D    1    1.000000
   6.26000000E-01    1.00000000E+00 

12    0
S    3    1.000000
   3.38650000E+01    2.54938000E-02 
   5.09479000E+00    1.90373000E-01 
   1.15879000E+00    8.52161000E-01 
S    1    1.000000
   3.25840000E-01    1.00000000E+00 
S    1    1.000000
   1.02741000E-01    1.00000000E+00 
S    1    1.000000
   3.60000000E-02    1.00000000E+00 
P    1    1.000000
   7.50000000E-01    1.00000000E+00 

[MO]
Sym=X
Ene= -0.043850
Spin=Alpha
Occup=1
     1   -1.550367784534e-05
     2   -2.719920212610e-05
     3   -1.827172551360e-05
     4   -2.695765822831e-05
     5   -4.974467222551e-16
     6    9.123318314667e-05
     7   -6.425862923193e-06
     8   -3.100902461476e-05
     9    9.918319103720e-16
    10    7.653814128572e-04
    11    8.654082519499e-05
    12    1.195560751350e-04
    13   -5.589594171055e-15
    14    3.290510524821e-03
    15    2.850365546260e-04
    16   -9.992014629191e-04
    17    2.207025179575e-14
    18   -1.088038438719e-07
    19   -8.805841786098e-16
    20   -9.560292130033e-16
    21    1.144637909662e-05
    22   -2.808475000218e-06
    23   -1.101328058465e-05
    24   -4.622886605267e-05
    25    3.141113756836e-04
    26    3.417435410240e-04
    27    3.163488617360e-07
    28    5.789376607146e-06
    29    6.183651789996e-16
    30    5.266477684880e-06
    31    8.173739705992e-06
    32   -2.591946898545e-04
    33   -2.531554631575e-03
    34   -4.906934934708e-06
    35    1.119056235454e-05
    36   -9.392003512852e-16
    37   -1.462716660426e-05
    38   -1.276393230655e-04
    39   -3.404873277199e-04
    40   -1.020848611386e-03
    41    1.035733043665e-05
    42   -1.439759828611e-06
    43   -4.552493426745e-16
    44   -6.217399366278e-06
    45   -1.489818740455e-05
    46   -2.428456286106e-05
    47    6.645811995265e-06
    48    9.008560528237e-16
    49    5.571565221109e-05
    50    1.115523158480e-05
    51    2.156095510960e-05
    52   -2.274318331216e-15
    53    5.299942561737e-04
    54   -2.014944938621e-04
    55    1.802325623833e-04
    56    1.783480143825e-15
    57    6.055414735563e-04
    58   -1.458795488122e-03
    59   -1.157930568243e-05
    60    9.085182997270e-15
    61    3.101742110280e-06
    62    3.065580872075e-16
    63   -1.343136189550e-15
    64   -3.799905804195e-06
    65    1.280012309206e-05
    66    3.313658216971e-05
    67    4.377584234142e-05
    68    1.168813540080e-05
    69    4.536685141200e-05
    70   -2.428403977102e-16
    71   -8.826788490180e-05
    72    2.386754317205e-05
    73    5.798574213702e-05
    74   -2.090796481669e-16
    75   -2.784456171823e-04
    76   -8.200469251000e-05
    77    8.238476975059e-05
    78    2.396741771176e-15
    79   -6.258850981123e-04
    80    7.741643100235e-05
    81    4.894220873511e-05
    82   -2.709596232076e-15
    83   -5.479426055883e-08
    84    3.443585981351e-16
    85   -2.063407632434e-16
    86    2.788686027830e-06
    87    6.263602918464e-07
    88   -8.332954396935e-06
    89    6.446845500738e-05
    90   -6.764049401778e-05
    91   -4.852568793902e-05
    92    1.030741764606e-15
    93   -2.776171891086e-04
    94   -3.135801666971e-04
    95   -1.899749751046e-04
    96   -1.698456998138e-15
    97    1.483913709510e-04
    98   -6.678647996814e-04
    99   -5.623948164442e-04
   100   -3.120361381342e-16
   101    3.709478595659e-03
   102   -3.902662059975e-04
   103   -3.285185573763e-04
   104   -7.874399725780e-16
   105    4.112289092829e-05
   106   -9.246917825765e-16
   107    6.656700045719e-16
   108   -7.797326881411e-05
   109   -1.725828885340e-04
   110   -5.514364921406e-01
   111   -4.717073476524e-01
   112    1.531262172082e-03
   113    8.897983765231e-04
   114   -1.641715708988e-15
   115   -5.632049339216e-03
   116   -5.884247077987e-04
   117   -3.117107276910e-04
   118    2.540598419557e-15
   119    1.576088034600e-03
   120    9.591100805672e-05
   121    7.438366276529e-05
   122   -3.408216778642e-15
   123   -1.350594859994e-03
   124    1.302903532443e-04
   125    6.382785117863e-05
   126    5.959579770730e-15
   127    1.428001807134e-04
   128   -8.952346440989e-16
   129   -9.501296588290e-16
   130    4.615719785896e-05
   131    2.909053959873e-05
   132   -7.898758594422e-06
   133   -1.678362496510e-05
   134    1.507384327036e-05
   135    2.359610941969e-05
   136   -6.107456976984e-16
   137    8.399090904167e-05
   138   -1.355377558835e-05
   139    3.588102434644e-05
   140    5.173748024829e-16
   141   -1.692464165400e-04
   142    1.016607820352e-04
   143    3.439794075359e-04
   144   -7.167322449591e-17
   145    4.586927670003e-04
   146    6.480140254107e-04
   147    3.575433753203e-04
   148   -2.465916237325e-15
   149    8.519860713230e-06
   150   -6.064334019865e-16
   151    6.898084349001e-16
   152   -8.964305720607e-06
   153    9.795749424430e-06
   154    1.219676779155e-06
   155    1.087165799929e-06
   156   -9.853531675109e-08
   157    1.483475784084e-07
   158    1.243513603212e-15
   159    6.170718824963e-06
   160    3.495267481263e-06
   161   -3.214377191958e-06
   162   -2.908807604770e-15
   163   -1.529633701135e-04
   164   -4.431252968859e-05
   165    2.278782391212e-05
   166    7.122048403114e-15
   167    2.013491638008e-04
   168    8.403700642647e-04
   169    4.055123820123e-04
   170   -1.814275569902e-14
   171   -1.918262479365e-06
   172    1.720091379615e-15
   173   -1.484049248960e-16
   174   -1.959681554994e-06
   175   -1.068375497667e-05
   176   -7.440519020311e-06
   177   -1.468492536794e-05
   178    1.774269419271e-05
   179    1.484841738663e-05
   180   -6.262548627762e-16
   181    7.288095739623e-05
   182    2.214856516915e-05
   183   -5.921828025757e-05
   184    5.703046968264e-16
   185   -6.449448105909e-04
   186    6.843676278061e-04
   187   -1.492402859532e-04
   188    4.290736709650e-15
   189   -3.017471950990e-03
   190    1.201619271787e-03
   191   -4.840363556900e-04
   192   -1.463579808192e-14
   193    3.598671131224e-06
   194   -9.844023141076e-16
   195   -9.952980115938e-16
   196    1.970528516436e-05
   197   -1.235715045014e-05
   198    6.541140258238e-06
   199   -1.329192448857e-04
   200   -3.075300040997e-04
   201   -9.952867615739e-04
   202    1.399893477005e-05
   203   -5.378937101139e-06
   204    7.809653149775e-16
Sym=X
Ene= 0.043850
Spin=Alpha
Occup=0
     1    3.545132203636e-07
     2   -6.484885869731e-07
     3    4.945371810205e-06
     4   -5.229276861978e-06
     5    3.408356644111e-16
     6    5.554669390452e-06
     7   -2.686848533775e-05
     8    1.786168689255e-05
     9   -1.626079925984e-15
    10    2.094718558664e-04
    11   -6.881942999771e-05
    12   -5.705285031904e-05
    13    1.429702542591e-15
    14   -5.963409006963e-04
    15   -6.501315957368e-04
    16   -2.089129692218e-04
    17    8.289980927789e-15
    18   -4.921925336810e-07
    19   -9.025043539068e-17
    20   -1.209408168005e-16
    21   -3.661253564383e-06
    22   -6.679703899562e-06
    23   -3.038325014942e-06
    24   -5.083677643111e-05
    25   -7.648041816338e-05
    26   -2.593060163625e-04
    27   -8.746791467710e-06
    28    8.737732665611e-06
    29    7.745837785987e-17
    30    5.331096609944e-06
    31   -4.269279455987e-05
    32   -1.589425715671e-05
    33   -1.362727905426e-04
    34    1.148456278799e-06
    35   -4.498672131654e-06
    36   -6.815712386184e-16
    37   -2.252469015398e-06
    38   -5.987784207833e-05
    39   -6.951107505294e-05
    40   -3.126320962492e-04
    41   -1.007205881527e-05
    42    6.434229945228e-06
    43   -8.452931136343e-16
    44   -5.198172382635e-06
    45    7.480773854048e-05
    46    6.106603209157e-05
    47   -3.416567326823e-05
    48    9.140471939326e-16
    49   -3.009834558977e-04
    50    3.455408491766e-04
    51   -2.130990009501e-04
    52   -4.114211289058e-15
    53   -4.366608884386e-06
    54    5.173385246120e-04
    55   -3.288613426229e-04
    56    4.666552337693e-15
    57   -5.355793518142e-04
    58   -6.513947727327e-04
    59    3.740276085487e-04
    60    6.596953951075e-15
    61    5.702336298965e-05
    62    8.634214220757e-16
    63    6.136584238598e-16
    64   -7.674104443633e-05
    65    1.764643650489e-04
    66   -5.515018172621e-01
    67   -4.716465472954e-01
    68   -1.581747291507e-03
    69    8.775389460899e-04
    70   -2.053199927626e-16
    71   -5.561849603355e-03
    72    6.391261392829e-04
    73   -2.925615019903e-04
    74    2.983523432012e-16
    75    1.360935826048e-03
    76   -1.266124171711e-04
    77    4.452159693272e-05
    78    1.028663314008e-15
    79   -1.366548243386e-03
    80   -2.937779608271e-05
    81    3.855805155373e-05
    82   -2.094805017670e-15
    83    1.060362958653e-04
    84    3.038131076423e-16
    85   -2.654147863358e-16
    86    7.450710264061e-05
    87   -5.802851472009e-05
    88    3.328699144359e-07
    89   -8.036810232812e-07
    90    4.266333274404e-06
    91   -1.349846974064e-06
    92    2.444283722602e-16
    93    3.586759812396e-06
    94   -2.204981059779e-05
    95    1.043683627694e-05
    96   -2.652255361688e-15
    97    2.397733374144e-04
    98   -1.123027829687e-04
    99    7.514073076895e-05
   100    3.691575519448e-15
   101   -4.001942696372e-04
   102   -1.830779304938e-04
   103    5.984432178949e-04
   104    1.788504982325e-14
   105   -3.836159680153e-06
   106    2.628961616687e-17
   107   -3.467974286827e-17
   108    8.562656443614e-06
   109   -2.282720530549e-06
   110   -1.716967472235e-05
   111   -1.745607606995e-05
   112   -2.502907282592e-07
   113    3.655418706528e-07
   114   -1.476618939880e-15
   115    7.567889295437e-06
   116   -1.138141331112e-06
   117   -1.117818812934e-06
   118    1.184840238508e-15
   119   -4.138869267331e-05
   120    1.664680262733e-05
   121    3.889905903050e-06
   122    1.840546254152e-15
   123    1.722059613079e-04
   124   -7.479470374777e-05
   125   -6.428133759630e-05
   126   -7.160996587287e-15
   127   -3.837877363712e-07
   128   -4.944863035236e-16
   129   -1.060087610696e-15
   130   -7.730696825680e-07
   131   -2.804841244131e-07
   132   -1.635458938140e-08
   133   -1.258323312840e-06
   134   -1.058539201717e-05
   135   -7.774242750006e-07
   136   -4.833270156743e-16
   137    2.936644135539e-05
   138    3.537890195121e-05
   139   -6.329094194880e-06
   140   -1.734333353989e-17
   141   -3.228203761890e-04
   142   -7.216905672597e-05
   143    2.624735050972e-04
   144    2.131689994521e-15
   145   -1.249089528225e-04
   146   -5.736424326977e-04
   147    1.245872160134e-04
   148   -1.227042109360e-14
   149    7.678188203207e-06
   150   -2.105170419772e-16
   151    7.220682034909e-16
   152   -2.089130418727e-05
   153   -8.254502364034e-06
   154   -1.031004695328e-08
   155   -1.650052393701e-06
   156   -5.058627253414e-06
   157    8.906368372732e-06
   158    6.692099902682e-16
   159    2.772049422749e-05
   160    1.577505080080e-05
   161   -1.788510021333e-05
   162   -9.629526353962e-17
   163   -2.771128702195e-04
   164   -2.168804876604e-04
   165   -7.575248601723e-05
   166    8.800975762450e-16
   167    6.249516241914e-05
   168   -2.598798141326e-04
   169    4.161892605631e-04
   170   -7.701179516478e-15
   171    8.382043010912e-06
   172    2.602239537819e-16
   173   -2.771796256931e-16
   174    1.389089630825e-05
   175    1.323021633071e-05
   176   -6.162164092077e-08
   177    6.114696365501e-07
   178   -5.534355101068e-07
   179    6.878248589197e-07
   180    1.367642234314e-15
   181   -1.223033951079e-05
   182    4.544698405084e-06
   183   -9.662411482927e-06
   184   -4.960263937074e-16
   185    8.278278361692e-05
   186   -4.524763853921e-05
   187    4.137758542921e-05
   188    7.905502264408e-16
   189    2.731752337673e-03
   190   -4.283965768184e-04
   191    2.468118279382e-04
   192   -1.527097724790e-14
   193   -5.025683966355e-06
   194    2.104645893407e-17
   195    3.640912665628e-16
   196    1.047357252674e-06
   197    4.131575033638e-06
   198   -1.047389263045e-06
   199    7.104905331407e-06
   200    2.028326241434e-05
   201    1.532886311619e-04
   202    1.608443339277e-07
   203   -4.398040198501e-07
   204   -8.126271630916e-16
[5D]
