[Molden Format]
[Atoms] (Angs)
  C      1    6     -0.00714236     -1.70213747     -0.00000000
  H      2    1     -2.06882847     -1.44022412      0.00000000
  H      3    1     -0.12337987     -2.77567521      0.00000000
  H      4    1      0.04651892      1.98813947     -0.00000000
  C      5    6     -1.21953563      0.40211669      0.00000000
  O      6    8     -2.25921553      1.03043814      0.00000000
  C      7    6      1.28797806      0.34644937     -0.00000000
  O      8    8      2.31273661      1.00537216     -0.00000000
  N      9    7      0.03446295      0.97739857     -0.00000000
  N     10    7     -1.17287765     -0.98229824      0.00000000
  C     11    6      1.20107039     -1.10433419     -0.00000000
  H     12    1      2.11220096     -1.67699125     -0.00000000
[GTO]
1    0
S    6    1.000000
   4.56324000E+03    1.96665000E-03 
   6.82024000E+02    1.52306000E-02 
   1.54973000E+02    7.61269000E-02 
   4.44553000E+01    2.60801000E-01 
   1.30290000E+01    6.16462000E-01 
   1.82773000E+00    2.21006000E-01 
SP   3    1.000000
   2.09642000E+01    1.14660000E-01   4.02487000E-02 
   4.80331000E+00    9.19999000E-01   2.37594000E-01 
   1.45933000E+00   -3.03068000E-03   8.15854000E-01 
SP   1    1.000000
   4.83456000E-01    1.00000000E+00   1.00000000E+00 
SP   1    1.000000
   1.45585000E-01    1.00000000E+00   1.00000000E+00 
SP   1    1.000000
   4.38000000E-02    1.00000000E+00   1.00000000E+00 
D    1    1.000000
   6.26000000E-01    1.00000000E+00 

2    0
S    3    1.000000
   3.38650000E+01    2.54938000E-02 
   5.09479000E+00    1.90373000E-01 
   1.15879000E+00    8.52161000E-01 
S    1    1.000000
   3.25840000E-01    1.00000000E+00 
S    1    1.000000
   1.02741000E-01    1.00000000E+00 
S    1    1.000000
   3.60000000E-02    1.00000000E+00 
P    1    1.000000
   7.50000000E-01    1.00000000E+00 

3    0
S    3    1.000000
   3.38650000E+01    2.54938000E-02 
   5.09479000E+00    1.90373000E-01 
   1.15879000E+00    8.52161000E-01 
S    1    1.000000
   3.25840000E-01    1.00000000E+00 
S    1    1.000000
   1.02741000E-01    1.00000000E+00 
S    1    1.000000
   3.60000000E-02    1.00000000E+00 
P    1    1.000000
   7.50000000E-01    1.00000000E+00 

4    0
S    3    1.000000
   3.38650000E+01    2.54938000E-02 
   5.09479000E+00    1.90373000E-01 
   1.15879000E+00    8.52161000E-01 
S    1    1.000000
   3.25840000E-01    1.00000000E+00 
S    1    1.000000
   1.02741000E-01    1.00000000E+00 
S    1    1.000000
   3.60000000E-02    1.00000000E+00 
P    1    1.000000
   7.50000000E-01    1.00000000E+00 

5    0
S    6    1.000000
   4.56324000E+03    1.96665000E-03 
   6.82024000E+02    1.52306000E-02 
   1.54973000E+02    7.61269000E-02 
   4.44553000E+01    2.60801000E-01 
   1.30290000E+01    6.16462000E-01 
   1.82773000E+00    2.21006000E-01 
SP   3    1.000000
   2.09642000E+01    1.14660000E-01   4.02487000E-02 
   4.80331000E+00    9.19999000E-01   2.37594000E-01 
   1.45933000E+00   -3.03068000E-03   8.15854000E-01 
SP   1    1.000000
   4.83456000E-01    1.00000000E+00   1.00000000E+00 
SP   1    1.000000
   1.45585000E-01    1.00000000E+00   1.00000000E+00 
SP   1    1.000000
   4.38000000E-02    1.00000000E+00   1.00000000E+00 
D    1    1.000000
   6.26000000E-01    1.00000000E+00 

6    0
S    6    1.000000
   8.58850000E+03    1.89515000E-03 
   1.29723000E+03    1.43859000E-02 
   2.99296000E+02    7.07320000E-02 
   8.73771000E+01    2.40001000E-01 
   2.56789000E+01    5.94797000E-01 
   3.74004000E+00    2.80802000E-01 
SP   3    1.000000
   4.21175000E+01    1.13889000E-01   3.65114000E-02 
   9.62837000E+00    9.20811000E-01   2.37153000E-01 
   2.85332000E+00   -3.27447000E-03   8.19702000E-01 
SP   1    1.000000
   9.05661000E-01    1.00000000E+00   1.00000000E+00 
SP   1    1.000000
   2.55611000E-01    1.00000000E+00   1.00000000E+00 
SP   1    1.000000
   8.45000000E-02    1.00000000E+00   1.00000000E+00 
D    1    1.000000
   1.29200000E+00    1.00000000E+00 

7    0
S    6    1.000000
   4.56324000E+03    1.96665000E-03 
   6.82024000E+02    1.52306000E-02 
   1.54973000E+02    7.61269000E-02 
   4.44553000E+01    2.60801000E-01 
   1.30290000E+01    6.16462000E-01 
   1.82773000E+00    2.21006000E-01 
SP   3    1.000000
   2.09642000E+01    1.14660000E-01   4.02487000E-02 
   4.80331000E+00    9.19999000E-01   2.37594000E-01 
   1.45933000E+00   -3.03068000E-03   8.15854000E-01 
SP   1    1.000000
   4.83456000E-01    1.00000000E+00   1.00000000E+00 
SP   1    1.000000
   1.45585000E-01    1.00000000E+00   1.00000000E+00 
SP   1    1.000000
   4.38000000E-02    1.00000000E+00   1.00000000E+00 
D    1    1.000000
   6.26000000E-01    1.00000000E+00 

8    0
S    6    1.000000
   8.58850000E+03    1.89515000E-03 
   1.29723000E+03    1.43859000E-02 
   2.99296000E+02    7.07320000E-02 
   8.73771000E+01    2.40001000E-01 
   2.56789000E+01    5.94797000E-01 
   3.74004000E+00    2.80802000E-01 
SP   3    1.000000
   4.21175000E+01    1.13889000E-01   3.65114000E-02 
   9.62837000E+00    9.20811000E-01   2.37153000E-01 
   2.85332000E+00   -3.27447000E-03   8.19702000E-01 
SP   1    1.000000
   9.05661000E-01    1.00000000E+00   1.00000000E+00 
SP   1    1.000000
   2.55611000E-01    1.00000000E+00   1.00000000E+00 
SP   1    1.000000
   8.45000000E-02    1.00000000E+00   1.00000000E+00 
D    1    1.000000
   1.29200000E+00    1.00000000E+00 

9    0
S    6    1.000000
   6.29348000E+03    1.96979000E-03 
   9.49044000E+02    1.49613000E-02 
   2.18776000E+02    7.35006000E-02 
   6.36916000E+01    2.48937000E-01 
   1.88282000E+01    6.02460000E-01 
   2.72023000E+00    2.56202000E-01 
SP   3    1.000000
   3.06331000E+01    1.11906000E-01   3.83119000E-02 
   7.02614000E+00    9.21666000E-01   2.37403000E-01 
   2.11205000E+00   -2.56919000E-03   8.17592000E-01 
SP   1    1.000000
   6.84009000E-01    1.00000000E+00   1.00000000E+00 
SP   1    1.000000
   2.00878000E-01    1.00000000E+00   1.00000000E+00 
SP   1    1.000000
   6.39000000E-02    1.00000000E+00   1.00000000E+00 
D    1    1.000000
   9.13000000E-01    1.00000000E+00 

10    0
S    6    1.000000
   6.29348000E+03    1.96979000E-03 
   9.49044000E+02    1.49613000E-02 
   2.18776000E+02    7.35006000E-02 
   6.36916000E+01    2.48937000E-01 
   1.88282000E+01    6.02460000E-01 
   2.72023000E+00    2.56202000E-01 
SP   3    1.000000
   3.06331000E+01    1.11906000E-01   3.83119000E-02 
   7.02614000E+00    9.21666000E-01   2.37403000E-01 
   2.11205000E+00   -2.56919000E-03   8.17592000E-01 
SP   1    1.000000
   6.84009000E-01    1.00000000E+00   1.00000000E+00 
SP   1    1.000000
   2.00878000E-01    1.00000000E+00   1.00000000E+00 
SP   1    1.000000
   6.39000000E-02    1.00000000E+00   1.00000000E+00 
D    1    1.000000
   9.13000000E-01    1.00000000E+00 

11    0
S    6    1.000000
   4.56324000E+03    1.96665000E-03 
   6.82024000E+02    1.52306000E-02 
   1.54973000E+02    7.61269000E-02 
   4.44553000E+01    2.60801000E-01 
   1.30290000E+01    6.16462000E-01 
   1.82773000E+00    2.21006000E-01 
SP   3    1.000000
   2.09642000E+01    1.14660000E-01   4.02487000E-02 
   4.80331000E+00    9.19999000E-01   2.37594000E-01 
   1.45933000E+00   -3.03068000E-03   8.15854000E-01 
SP   1    1.000000
   4.83456000E-01    1.00000000E+00   1.00000000E+00 
SP   1    1.000000
   1.45585000E-01    1.00000000E+00   1.00000000E+00 
SP   1    1.000000
   4.38000000E-02    1.00000000E+00   1.00000000E+00 
D    1    1.000000
   6.26000000E-01    1.00000000E+00 

12    0
S    3    1.000000
   3.38650000E+01    2.54938000E-02 
   5.09479000E+00    1.90373000E-01 
   1.15879000E+00    8.52161000E-01 
S    1    1.000000
   3.25840000E-01    1.00000000E+00 
S    1    1.000000
   1.02741000E-01    1.00000000E+00 
S    1    1.000000
   3.60000000E-02    1.00000000E+00 
P    1    1.000000
   7.50000000E-01    1.00000000E+00 

[MO]
Sym=X
Ene= -0.495672
Spin=Alpha
Occup=1
     1    4.805756937854e-03
     2    7.762519914618e-03
     3    1.592174818676e-03
     4    2.112778724032e-02
     5    2.102425093299e-14
     6   -4.333876681710e-03
     7   -6.959835506945e-05
     8    2.470193322319e-02
     9    1.832597852385e-14
    10   -3.604027922624e-01
    11    1.427390837563e-01
    12    5.704274551545e-02
    13    5.396686478258e-14
    14    3.464137125702e+00
    15    1.042970647635e+00
    16    3.366825911407e+00
    17   -7.409300558193e-13
    18   -2.351902441082e-03
    19   -1.912526330141e-15
    20   -2.358429016216e-16
    21   -2.827051816022e-03
    22   -1.257368747592e-03
    23   -1.138165069076e-02
    24   -6.500163625496e-03
    25   -2.991767571569e-01
    26   -1.170390582890e+00
    27    7.280828822907e-03
    28    9.830647985478e-03
    29   -4.479042245386e-15
    30    2.441122789382e-03
    31    2.014759686496e-03
    32    4.253980928163e-01
    33    3.925884708551e+00
    34    3.214497273957e-03
    35   -4.885654216821e-03
    36    2.497471350043e-15
    37   -1.076093923235e-02
    38   -3.888893679426e-03
    39   -2.331111049188e-01
    40   -8.533382176447e-01
    41   -6.231390739955e-03
    42   -1.072367025389e-02
    43   -3.802734904206e-15
    44    1.126193260749e-03
    45    1.762671503863e-03
    46   -2.012818266510e-02
    47    3.088879976638e-02
    48   -5.091538971261e-14
    49    2.025683558876e-03
    50   -3.730153340770e-02
    51    5.869403840386e-02
    52   -8.794104642338e-14
    53    1.161583471346e-01
    54   -4.745609557479e-01
    55    3.769309258911e-01
    56   -2.680931245554e-13
    57   -4.447407816399e+00
    58   -3.349037728645e+00
    59    2.051207739049e+00
    60    2.190156951940e-14
    61   -1.139935550977e-02
    62   -6.360621791448e-15
    63    7.169555192794e-15
    64   -1.049233809736e-02
    65    1.145871057785e-02
    66    1.451737970356e-02
    67    2.504324665607e-02
    68    6.262959269447e-03
    69   -1.925098060470e-02
    70    2.772354206396e-14
    71   -8.270236347615e-02
    72    1.453054654106e-02
    73   -3.029445431927e-02
    74    5.836980728770e-14
    75   -2.581051089682e-01
    76   -1.110049478554e-01
    77    4.100403187185e-02
    78    7.060627636539e-14
    79   -1.410721659343e+00
    80   -6.620358832449e-02
    81    1.392525910586e-02
    82    9.413471629860e-14
    83   -2.064800985664e-03
    84   -2.290382781011e-16
    85    3.373735519728e-15
    86    1.950929877623e-03
    87   -1.335378443499e-03
    88   -6.632896217299e-03
    89   -1.213619776310e-02
    90   -1.456307704964e-02
    91   -1.705652980358e-03
    92    8.343208902785e-15
    93    5.214586062803e-02
    94   -2.818570245416e-02
    95   -2.117531815385e-03
    96    6.580326275146e-15
    97   -1.047903015621e-01
    98   -2.734700723377e-02
    99   -7.897142228221e-02
   100   -4.300153249555e-14
   101    3.654973172424e+00
   102   -7.309307786620e-01
   103   -5.758953226553e-01
   104   -2.331844077669e-13
   105   -2.916536472482e-03
   106   -3.357440954175e-15
   107    2.564381369615e-16
   108   -5.963133718578e-03
   109    4.024172216888e-03
   110   -4.060021195058e-03
   111   -6.896722546155e-03
   112   -3.200891675041e-03
   113    1.070311100788e-02
   114   -1.173209561671e-15
   115    2.035108061049e-02
   116   -1.617610249457e-03
   117    1.608728397506e-02
   118   -3.205117929684e-14
   119    6.382063606704e-02
   120   -3.975173926413e-02
   121    5.852238523961e-03
   122    2.855009961441e-17
   123    1.753043658817e-01
   124    5.643943157989e-02
   125    9.247561701311e-03
   126    2.635252265789e-14
   127   -6.136425156387e-04
   128    1.943360491089e-15
   129    2.408627611358e-15
   130    1.738532682974e-03
   131    6.673419616187e-04
   132   -7.173605360091e-03
   133   -1.230037288839e-02
   134   -9.546119639732e-03
   135    1.839412949729e-02
   136    2.672243800781e-14
   137    3.748790223569e-02
   138   -1.281636932646e-02
   139    3.076182390830e-02
   140    6.783141738748e-15
   141    1.803132747746e-01
   142   -3.155358142673e-02
   143   -4.807552773537e-02
   144    1.594844285009e-13
   145    1.906942540715e+00
   146   -9.006254195518e-02
   147   -9.522795314231e-02
   148   -8.149206370069e-14
   149   -4.141878471669e-03
   150    8.244112589574e-15
   151   -5.352715984354e-16
   152    8.066872607050e-03
   153   -8.099815350425e-03
   154   -1.478451258704e-02
   155   -2.526272714669e-02
   156   -1.198672904705e-02
   157   -1.426475533098e-03
   158    1.364839024833e-14
   159    7.008437372020e-02
   160   -1.985382260971e-02
   161   -6.229473900814e-03
   162    7.658605103058e-15
   163    3.852914956805e-01
   164    6.867403039658e-02
   165    6.664608836706e-02
   166    7.267045005374e-14
   167    2.032151023055e+00
   168    4.861730661467e-02
   169   -6.382163235429e-02
   170    2.550478461136e-13
   171   -8.524874862178e-04
   172    1.661938780053e-15
   173   -9.717115871231e-15
   174    4.087359896353e-03
   175   -6.292918065986e-03
   176    2.557149065627e-03
   177    4.055087798647e-03
   178   -1.645817972043e-02
   179    1.380321671541e-02
   180   -2.947590133574e-14
   181   -6.985022783019e-03
   182   -3.101109661201e-02
   183    2.528567639645e-02
   184   -3.919321440869e-14
   185   -1.462112955908e-01
   186   -1.062222645488e-02
   187    9.217471246121e-03
   188   -1.683229799879e-13
   189   -7.778113325687e+00
   190    5.560148907073e-01
   191   -5.208696386857e-01
   192    9.487240809671e-13
   193   -4.456886478010e-03
   194    3.043013090367e-16
   195    2.190882021217e-16
   196   -3.329380233870e-04
   197   -5.619537099090e-03
   198   -1.810220740433e-03
   199   -1.931752579426e-02
   200    2.226084973468e-01
   201    1.060191147636e+00
   202    3.503036775398e-03
   203   -5.920998576983e-03
   204   -1.863833968110e-15
Sym=X
Ene= 0.495672
Spin=Alpha
Occup=0
     1    4.952697480144e-15
     2    8.467855031348e-15
     3   -6.572117172138e-15
     4    1.865590444915e-14
     5    9.562491895609e-03
     6   -3.807155911053e-14
     7    2.496079301926e-14
     8    6.963028335174e-15
     9    3.273504689439e-02
    10   -3.627622173342e-13
    11   -2.209589058259e-14
    12   -3.566809080247e-14
    13   -5.372454279430e-02
    14    6.136234654799e-12
    15    4.224632972774e-13
    16    2.619270725967e-12
    17    2.939590311957e-01
    18   -4.889684502069e-15
    19    1.346664916738e-03
    20   -5.641074196201e-03
    21   -2.459152202354e-15
    22    5.346955742935e-15
    23    7.618743971921e-15
    24    1.501490359981e-13
    25   -4.180774364221e-13
    26   -2.507489835084e-12
    27    6.790893323366e-16
    28   -3.504743840860e-15
    29    5.977190579603e-03
    30    1.021937356762e-15
    31    5.239261244547e-14
    32   -1.723302723844e-13
    33    1.415334741703e-12
    34    3.366473121903e-15
    35   -7.896491171693e-15
    36    6.295815670985e-03
    37    1.252492291366e-15
    38    2.502471915603e-15
    39   -5.164914238244e-13
    40    8.805671759697e-13
    41   -3.702885758269e-15
    42    2.837410991063e-16
    43   -7.890966375434e-03
    44    4.653624886483e-16
    45    3.748312868861e-15
    46   -7.855506620282e-15
    47   -3.008058840056e-15
    48    6.819233806425e-03
    49   -3.558750210182e-14
    50    9.263275883457e-15
    51    2.088689538634e-14
    52    2.760309264553e-02
    53    4.923201009086e-13
    54   -5.732472147996e-13
    55   -2.473871510959e-13
    56   -4.494071089818e-02
    57   -1.060668833592e-12
    58   -2.342859448510e-12
    59   -1.100288447246e-12
    60    5.006333374739e-01
    61   -8.216105063330e-15
    62   -1.126030788101e-03
    63    1.290386310363e-03
    64   -1.610553653279e-15
    65   -4.095291132961e-15
    66    5.776244008855e-16
    67    7.224298888906e-16
    68    7.872589768918e-15
    69   -5.928648788749e-15
    70   -2.917055818252e-02
    71   -5.345234923056e-15
    72    2.082296926936e-14
    73   -8.308882326813e-15
    74   -3.992790608341e-02
    75   -2.045627962772e-14
    76   -5.397175346327e-14
    77    3.720344842597e-14
    78   -4.349057444762e-02
    79   -1.555332837838e-12
    80   -1.350581077902e-13
    81    5.187416450938e-13
    82    6.960124899364e-02
    83   -1.253522515324e-15
    84   -2.594175040770e-03
    85   -1.150230504816e-03
    86   -5.942690733557e-16
    87   -1.581508163409e-15
    88    2.842500869436e-16
    89   -3.023944330627e-15
    90   -7.719125700970e-16
    91   -1.693294404764e-15
    92    7.456117746318e-02
    93    1.919184455726e-14
    94    1.538429336723e-14
    95    2.471938265503e-14
    96    9.389482781258e-02
    97   -1.872327565769e-13
    98    2.362087042668e-13
    99   -1.493108279592e-13
   100    3.273961641550e-01
   101    3.460415185944e-12
   102    2.968866442143e-12
   103   -1.431117247372e-12
   104   -1.802120493434e+00
   105    2.416679796230e-15
   106   -2.861332234249e-03
   107    2.418058565167e-03
   108    1.551305354452e-15
   109    4.808781101431e-15
   110    3.388485074150e-15
   111    5.542246152099e-15
   112   -2.991552670396e-15
   113    4.933626778132e-15
   114    5.439898160161e-03
   115   -1.894876184519e-14
   116   -7.067803737678e-15
   117   -5.247188200799e-15
   118    2.688281185616e-02
   119   -2.605328159052e-14
   120    6.203090992211e-14
   121    7.077458741865e-14
   122   -8.976624681349e-02
   123   -8.064206969145e-13
   124   -3.550237427465e-13
   125   -1.752345451382e-13
   126    4.571260642036e-01
   127    1.730360331608e-15
   128   -5.040093609283e-03
   129   -3.485156874667e-03
   130    7.534059177183e-16
   131   -2.804764993174e-15
   132    1.723021838126e-15
   133    3.326845334220e-15
   134   -1.225073894173e-14
   135   -1.221801629549e-14
   136    1.551383606350e-02
   137   -1.358366535589e-14
   138   -2.045912444215e-14
   139   -2.353562398791e-14
   140    2.468624269004e-02
   141    1.404122644368e-13
   142   -5.051977041826e-14
   143   -7.439939410968e-14
   144    3.259486500201e-02
   145    5.752582521191e-12
   146   -4.697170562998e-13
   147   -3.412489598813e-15
   148   -1.462648075449e-01
   149   -2.069461674829e-16
   150    2.838093484914e-03
   151   -7.154049456875e-03
   152   -3.141660901155e-15
   153   -1.495333105729e-15
   154    1.222139229432e-15
   155   -6.113245271608e-16
   156    9.211780144240e-15
   157    7.688674253512e-15
   158   -4.099358416984e-02
   159   -1.127467688312e-14
   160   -7.559753686561e-15
   161    9.654013470976e-15
   162   -5.690870499100e-02
   163    1.042472051230e-13
   164    3.460128001592e-13
   165   -4.728530566525e-14
   166   -1.361999823120e-01
   167   -2.539791937311e-12
   168   -1.392983578631e-12
   169   -7.001396835397e-13
   170    3.928019638700e-01
   171   -4.193307577203e-15
   172   -3.958174378014e-03
   173   -2.878811211411e-03
   174    2.028666990671e-15
   175   -2.162690910082e-16
   176    2.018299412269e-15
   177    2.737917894656e-15
   178   -1.113802486183e-14
   179   -4.743605340932e-15
   180    1.299661559306e-02
   181    1.050406282157e-15
   182    5.236770890023e-15
   183   -8.095456614189e-15
   184    2.484345120661e-03
   185   -1.448993276795e-13
   186   -4.714255194629e-13
   187    8.570581703966e-14
   188    8.595897451564e-02
   189   -8.011961697978e-12
   190   -8.790216207105e-13
   191   -1.947279924676e-12
   192    2.326529258900e-02
   193   -7.964156128174e-16
   194   -7.471636985294e-03
   195    4.903610045570e-03
   196   -5.787375559876e-15
   197   -3.356248261961e-15
   198    3.809178077302e-15
   199    8.416317905517e-14
   200    7.253907111370e-13
   201   -8.960610705106e-13
   202   -7.955215778081e-15
   203    2.072318102492e-15
   204   -5.156782013803e-03
[5D]
