[Molden Format]
[Atoms] (Angs)
  C      1    6     -0.00714236     -1.70213747     -0.00000000
  H      2    1     -2.06882847     -1.44022412      0.00000000
  H      3    1     -0.12337987     -2.77567521      0.00000000
  H      4    1      0.04651892      1.98813947     -0.00000000
  C      5    6     -1.21953563      0.40211669      0.00000000
  O      6    8     -2.25921553      1.03043814      0.00000000
  C      7    6      1.28797806      0.34644937     -0.00000000
  O      8    8      2.31273661      1.00537216     -0.00000000
  N      9    7      0.03446295      0.97739857     -0.00000000
  N     10    7     -1.17287765     -0.98229824      0.00000000
  C     11    6      1.20107039     -1.10433419     -0.00000000
  H     12    1      2.11220096     -1.67699125     -0.00000000
[GTO]
1    0
S    6    1.000000
   4.56324000E+03    1.96665000E-03 
   6.82024000E+02    1.52306000E-02 
   1.54973000E+02    7.61269000E-02 
   4.44553000E+01    2.60801000E-01 
   1.30290000E+01    6.16462000E-01 
   1.82773000E+00    2.21006000E-01 
SP   3    1.000000
   2.09642000E+01    1.14660000E-01   4.02487000E-02 
   4.80331000E+00    9.19999000E-01   2.37594000E-01 
   1.45933000E+00   -3.03068000E-03   8.15854000E-01 
SP   1    1.000000
   4.83456000E-01    1.00000000E+00   1.00000000E+00 
SP   1    1.000000
   1.45585000E-01    1.00000000E+00   1.00000000E+00 
SP   1    1.000000
   4.38000000E-02    1.00000000E+00   1.00000000E+00 
D    1    1.000000
   6.26000000E-01    1.00000000E+00 

2    0
S    3    1.000000
   3.38650000E+01    2.54938000E-02 
   5.09479000E+00    1.90373000E-01 
   1.15879000E+00    8.52161000E-01 
S    1    1.000000
   3.25840000E-01    1.00000000E+00 
S    1    1.000000
   1.02741000E-01    1.00000000E+00 
S    1    1.000000
   3.60000000E-02    1.00000000E+00 
P    1    1.000000
   7.50000000E-01    1.00000000E+00 

3    0
S    3    1.000000
   3.38650000E+01    2.54938000E-02 
   5.09479000E+00    1.90373000E-01 
   1.15879000E+00    8.52161000E-01 
S    1    1.000000
   3.25840000E-01    1.00000000E+00 
S    1    1.000000
   1.02741000E-01    1.00000000E+00 
S    1    1.000000
   3.60000000E-02    1.00000000E+00 
P    1    1.000000
   7.50000000E-01    1.00000000E+00 

4    0
S    3    1.000000
   3.38650000E+01    2.54938000E-02 
   5.09479000E+00    1.90373000E-01 
   1.15879000E+00    8.52161000E-01 
S    1    1.000000
   3.25840000E-01    1.00000000E+00 
S    1    1.000000
   1.02741000E-01    1.00000000E+00 
S    1    1.000000
   3.60000000E-02    1.00000000E+00 
P    1    1.000000
   7.50000000E-01    1.00000000E+00 

5    0
S    6    1.000000
   4.56324000E+03    1.96665000E-03 
   6.82024000E+02    1.52306000E-02 
   1.54973000E+02    7.61269000E-02 
   4.44553000E+01    2.60801000E-01 
   1.30290000E+01    6.16462000E-01 
   1.82773000E+00    2.21006000E-01 
SP   3    1.000000
   2.09642000E+01    1.14660000E-01   4.02487000E-02 
   4.80331000E+00    9.19999000E-01   2.37594000E-01 
   1.45933000E+00   -3.03068000E-03   8.15854000E-01 
SP   1    1.000000
   4.83456000E-01    1.00000000E+00   1.00000000E+00 
SP   1    1.000000
   1.45585000E-01    1.00000000E+00   1.00000000E+00 
SP   1    1.000000
   4.38000000E-02    1.00000000E+00   1.00000000E+00 
D    1    1.000000
   6.26000000E-01    1.00000000E+00 

6    0
S    6    1.000000
   8.58850000E+03    1.89515000E-03 
   1.29723000E+03    1.43859000E-02 
   2.99296000E+02    7.07320000E-02 
   8.73771000E+01    2.40001000E-01 
   2.56789000E+01    5.94797000E-01 
   3.74004000E+00    2.80802000E-01 
SP   3    1.000000
   4.21175000E+01    1.13889000E-01   3.65114000E-02 
   9.62837000E+00    9.20811000E-01   2.37153000E-01 
   2.85332000E+00   -3.27447000E-03   8.19702000E-01 
SP   1    1.000000
   9.05661000E-01    1.00000000E+00   1.00000000E+00 
SP   1    1.000000
   2.55611000E-01    1.00000000E+00   1.00000000E+00 
SP   1    1.000000
   8.45000000E-02    1.00000000E+00   1.00000000E+00 
D    1    1.000000
   1.29200000E+00    1.00000000E+00 

7    0
S    6    1.000000
   4.56324000E+03    1.96665000E-03 
   6.82024000E+02    1.52306000E-02 
   1.54973000E+02    7.61269000E-02 
   4.44553000E+01    2.60801000E-01 
   1.30290000E+01    6.16462000E-01 
   1.82773000E+00    2.21006000E-01 
SP   3    1.000000
   2.09642000E+01    1.14660000E-01   4.02487000E-02 
   4.80331000E+00    9.19999000E-01   2.37594000E-01 
   1.45933000E+00   -3.03068000E-03   8.15854000E-01 
SP   1    1.000000
   4.83456000E-01    1.00000000E+00   1.00000000E+00 
SP   1    1.000000
   1.45585000E-01    1.00000000E+00   1.00000000E+00 
SP   1    1.000000
   4.38000000E-02    1.00000000E+00   1.00000000E+00 
D    1    1.000000
   6.26000000E-01    1.00000000E+00 

8    0
S    6    1.000000
   8.58850000E+03    1.89515000E-03 
   1.29723000E+03    1.43859000E-02 
   2.99296000E+02    7.07320000E-02 
   8.73771000E+01    2.40001000E-01 
   2.56789000E+01    5.94797000E-01 
   3.74004000E+00    2.80802000E-01 
SP   3    1.000000
   4.21175000E+01    1.13889000E-01   3.65114000E-02 
   9.62837000E+00    9.20811000E-01   2.37153000E-01 
   2.85332000E+00   -3.27447000E-03   8.19702000E-01 
SP   1    1.000000
   9.05661000E-01    1.00000000E+00   1.00000000E+00 
SP   1    1.000000
   2.55611000E-01    1.00000000E+00   1.00000000E+00 
SP   1    1.000000
   8.45000000E-02    1.00000000E+00   1.00000000E+00 
D    1    1.000000
   1.29200000E+00    1.00000000E+00 

9    0
S    6    1.000000
   6.29348000E+03    1.96979000E-03 
   9.49044000E+02    1.49613000E-02 
   2.18776000E+02    7.35006000E-02 
   6.36916000E+01    2.48937000E-01 
   1.88282000E+01    6.02460000E-01 
   2.72023000E+00    2.56202000E-01 
SP   3    1.000000
   3.06331000E+01    1.11906000E-01   3.83119000E-02 
   7.02614000E+00    9.21666000E-01   2.37403000E-01 
   2.11205000E+00   -2.56919000E-03   8.17592000E-01 
SP   1    1.000000
   6.84009000E-01    1.00000000E+00   1.00000000E+00 
SP   1    1.000000
   2.00878000E-01    1.00000000E+00   1.00000000E+00 
SP   1    1.000000
   6.39000000E-02    1.00000000E+00   1.00000000E+00 
D    1    1.000000
   9.13000000E-01    1.00000000E+00 

10    0
S    6    1.000000
   6.29348000E+03    1.96979000E-03 
   9.49044000E+02    1.49613000E-02 
   2.18776000E+02    7.35006000E-02 
   6.36916000E+01    2.48937000E-01 
   1.88282000E+01    6.02460000E-01 
   2.72023000E+00    2.56202000E-01 
SP   3    1.000000
   3.06331000E+01    1.11906000E-01   3.83119000E-02 
   7.02614000E+00    9.21666000E-01   2.37403000E-01 
   2.11205000E+00   -2.56919000E-03   8.17592000E-01 
SP   1    1.000000
   6.84009000E-01    1.00000000E+00   1.00000000E+00 
SP   1    1.000000
   2.00878000E-01    1.00000000E+00   1.00000000E+00 
SP   1    1.000000
   6.39000000E-02    1.00000000E+00   1.00000000E+00 
D    1    1.000000
   9.13000000E-01    1.00000000E+00 

11    0
S    6    1.000000
   4.56324000E+03    1.96665000E-03 
   6.82024000E+02    1.52306000E-02 
   1.54973000E+02    7.61269000E-02 
   4.44553000E+01    2.60801000E-01 
   1.30290000E+01    6.16462000E-01 
   1.82773000E+00    2.21006000E-01 
SP   3    1.000000
   2.09642000E+01    1.14660000E-01   4.02487000E-02 
   4.80331000E+00    9.19999000E-01   2.37594000E-01 
   1.45933000E+00   -3.03068000E-03   8.15854000E-01 
SP   1    1.000000
   4.83456000E-01    1.00000000E+00   1.00000000E+00 
SP   1    1.000000
   1.45585000E-01    1.00000000E+00   1.00000000E+00 
SP   1    1.000000
   4.38000000E-02    1.00000000E+00   1.00000000E+00 
D    1    1.000000
   6.26000000E-01    1.00000000E+00 

12    0
S    3    1.000000
   3.38650000E+01    2.54938000E-02 
   5.09479000E+00    1.90373000E-01 
   1.15879000E+00    8.52161000E-01 
S    1    1.000000
   3.25840000E-01    1.00000000E+00 
S    1    1.000000
   1.02741000E-01    1.00000000E+00 
S    1    1.000000
   3.60000000E-02    1.00000000E+00 
P    1    1.000000
   7.50000000E-01    1.00000000E+00 

[MO]
Sym=X
Ene= -0.495488
Spin=Alpha
Occup=1
     1    1.704987578480e-02
     2    3.011466527574e-02
     3    1.555008491805e-02
     4    2.795149571023e-02
     5   -4.706873714871e-14
     6   -1.054158669808e-01
     7    2.814789902049e-02
     8    3.858791719760e-02
     9   -8.741852131737e-14
    10   -9.289129072939e-02
    11    6.931353152889e-02
    12    1.634570830341e-01
    13   -6.527784040595e-14
    14   -3.915728901775e+00
    15   -7.024156912153e-01
    16    1.792841655770e+00
    17   -1.985485055848e-13
    18   -5.426931757616e-04
    19   -6.362803140170e-16
    20    3.184041605878e-15
    21   -8.105927695380e-03
    22    1.821647306094e-03
    23    1.334788251050e-02
    24    4.216109818281e-02
    25   -3.043093763467e-01
    26   -4.701129236597e-01
    27    3.401864315087e-03
    28   -7.836440204693e-03
    29    8.943466208931e-15
    30   -2.344253406936e-03
    31   -1.791545326051e-02
    32    4.349361236401e-01
    33    3.182526804672e+00
    34   -1.060478769705e-03
    35   -1.321778619080e-02
    36   -5.376042787717e-15
    37    1.426218321054e-02
    38    4.090844504738e-02
    39    2.623447711452e-01
    40    1.051015081484e+00
    41   -7.572958169499e-04
    42    1.004292054885e-02
    43    9.212875992455e-16
    44    7.243070899844e-03
    45    1.307660719255e-02
    46    1.830948574805e-02
    47   -7.630196471884e-03
    48    6.616720755842e-15
    49   -4.206745264814e-02
    50    3.300573898890e-02
    51   -1.886416455640e-02
    52   -4.465604877377e-15
    53   -1.851872357629e-01
    54    3.802158383742e-01
    55   -1.912900874549e-01
    56    5.768938623655e-14
    57   -2.627364616631e-01
    58    1.663801639571e+00
    59    2.084229135006e-01
    60    8.321224022477e-13
    61   -8.439270873814e-03
    62    1.065680345759e-15
    63   -1.061979367279e-14
    64    1.335191982071e-02
    65   -1.355009723504e-02
    66   -1.670309691526e-02
    67   -2.885997826740e-02
    68   -1.060303583165e-02
    69   -4.044796937632e-02
    70    1.314779838877e-15
    71    9.730737200862e-02
    72   -1.803695410746e-02
    73   -5.608005880159e-02
    74   -1.331086616732e-14
    75    2.575070321672e-01
    76    6.444695500271e-02
    77   -8.562274429272e-02
    78    5.133795806820e-14
    79    9.725723813222e-01
    80    6.599003896700e-02
    81   -1.035703555844e-01
    82   -3.672795201498e-13
    83   -3.516384595752e-04
    84   -1.198491638550e-15
    85   -6.603234782558e-16
    86   -3.015761378409e-03
    87   -3.480519221450e-04
    88    3.343175075889e-03
    89    5.860450816099e-03
    90    4.888872058131e-03
    91    2.101930655938e-03
    92    3.528779531280e-14
    93   -2.210309986706e-02
    94    1.154502040187e-02
    95    6.141189786630e-03
    96    7.600282147245e-14
    97   -6.637613274826e-03
    98   -1.127258461670e-01
    99   -6.451050723282e-02
   100    1.106870414683e-13
   101   -1.718187005174e+00
   102    1.253482917454e+00
   103   -1.878245591561e-01
   104   -6.339271800373e-13
   105    2.103530209765e-03
   106   -8.358786795577e-15
   107   -6.658492980130e-15
   108    7.715154486798e-03
   109    7.626224704758e-03
   110    2.253691836802e-03
   111    3.963456166282e-03
   112   -5.405028127408e-03
   113   -1.273513731377e-02
   114   -3.750733305424e-14
   115   -1.413621251180e-02
   116   -8.779468523645e-03
   117   -1.852735964491e-02
   118   -3.803053675372e-14
   119    8.063493557243e-05
   120   -1.295722943672e-03
   121   -2.188583852157e-02
   122   -1.304559710448e-13
   123    2.154310963400e-01
   124   -1.939101390115e-01
   125   -9.394711089420e-02
   126    2.157485573096e-13
   127    6.217955192965e-04
   128   -5.621640524248e-16
   129   -3.189782116307e-15
   130   -7.119228387649e-04
   131   -4.504794794821e-04
   132    8.533289687706e-03
   133    1.456879143285e-02
   134   -8.129277644919e-03
   135   -2.589197838383e-02
   136   -2.407912663145e-14
   137   -4.009985757391e-02
   138   -1.151120744373e-02
   139   -4.215526776403e-02
   140   -4.426145295710e-14
   141   -2.553475529103e-01
   142   -1.176638133019e-02
   143   -1.655940316836e-03
   144   -8.128833677598e-14
   145   -4.422436817979e-01
   146   -4.800859633949e-03
   147   -2.346753705214e-01
   148   -3.608485501986e-14
   149    4.350139392264e-04
   150    3.451504937458e-15
   151   -1.181644539552e-15
   152   -8.339340207514e-03
   153    1.973402020437e-03
   154   -1.471352181215e-03
   155   -2.580633891471e-03
   156   -1.333936550950e-03
   157    2.541461365212e-04
   158    2.054403358414e-14
   159    6.002523863633e-03
   160   -1.444022695591e-03
   161    5.848645595410e-03
   162    4.006807129025e-14
   163    5.722560802732e-03
   164   -3.605955255441e-02
   165   -4.471995484577e-02
   166    5.860522094507e-14
   167   -4.735292617732e-01
   168   -8.738997870827e-01
   169   -4.625824733863e-01
   170   -3.234107503345e-13
   171    7.641239214474e-04
   172   -7.293019107820e-15
   173    3.076968352469e-15
   174    1.354284986128e-03
   175    1.125136829925e-02
   176    7.180095879555e-03
   177    1.246519459781e-02
   178   -1.727890157211e-02
   179   -1.602537629620e-03
   180    2.257210306635e-14
   181   -3.768664961967e-02
   182   -1.833111626223e-02
   183   -1.959091533931e-03
   184    2.644269080352e-14
   185   -2.307477175647e-01
   186   -9.205702078562e-03
   187   -4.532733708172e-02
   188    1.704084093578e-14
   189    1.614777440934e+00
   190   -1.467214238795e+00
   191   -8.128303077462e-01
   192    4.801262495873e-13
   193    3.891867759477e-03
   194    5.664519342940e-15
   195    1.091371772045e-14
   196    1.906919354359e-03
   197   -5.349606261210e-03
   198   -1.030493856761e-03
   199   -6.082797306996e-03
   200    1.003877210486e-01
   201    6.986853674166e-01
   202    2.954880730608e-03
   203   -4.777257731104e-03
   204    6.130934993758e-15
Sym=X
Ene= 0.495488
Spin=Alpha
Occup=0
     1   -4.994512510516e-03
     2   -8.095222073571e-03
     3   -1.881811018530e-03
     4   -2.156463177279e-02
     5   -2.127286599337e-14
     6    5.982761207689e-03
     7   -1.857815713225e-04
     8   -2.512782404883e-02
     9   -1.649657024925e-14
    10    3.591629792826e-01
    11   -1.406823439299e-01
    12   -5.718304064233e-02
    13   -5.444610111342e-14
    14   -3.514279635282e+00
    15   -1.029556584347e+00
    16   -3.389290561677e+00
    17    7.490715232030e-13
    18    2.245959097800e-03
    19    2.114132469033e-15
    20    1.562405149441e-16
    21    2.673786416269e-03
    22    1.466034235900e-03
    23    1.210427809477e-02
    24    1.058289057262e-02
    25    2.971761068641e-01
    26    1.185702980996e+00
    27   -7.155024020911e-03
    28   -9.835154930901e-03
    29    4.299343778891e-15
    30   -2.202989663179e-03
    31   -2.165453367218e-03
    32   -4.206307369451e-01
    33   -3.936487644413e+00
    34   -3.361996546052e-03
    35    4.946494208405e-03
    36   -2.566608514136e-15
    37    1.101797531110e-02
    38    4.180421924147e-03
    39    2.376728357251e-01
    40    8.466759762797e-01
    41    6.435623135161e-03
    42    1.078517516197e-02
    43    3.105240300478e-15
    44   -1.505836655196e-03
    45   -2.448987217120e-03
    46    1.972381300084e-02
    47   -3.162556465068e-02
    48    5.140060938742e-14
    49    5.561649813900e-04
    50    3.628186404601e-02
    51   -5.972040607577e-02
    52    8.788994925142e-14
    53   -1.145803560170e-01
    54    4.577850223854e-01
    55   -3.856194225414e-01
    56    2.725669043895e-13
    57    4.453817715224e+00
    58    3.351420360061e+00
    59   -2.058621768617e+00
    60   -1.882894137531e-14
    61    1.132841560329e-02
    62    6.330409284284e-15
    63   -6.869899150193e-15
    64    1.183375435051e-02
    65   -1.051023625604e-02
    66   -1.301070832684e-02
    67   -2.234490054391e-02
    68   -5.543319738150e-03
    69    1.526453418624e-02
    70   -2.775453465809e-14
    71    7.431200893810e-02
    72   -1.315120897039e-02
    73    2.512104334465e-02
    74   -5.877212173277e-14
    75    2.489262961973e-01
    76    1.123005435190e-01
    77   -4.122635294451e-02
    78   -7.061104773577e-14
    79    1.396147619075e+00
    80    5.940769999867e-02
    81   -8.743317702269e-03
    82   -9.804558441674e-14
    83    1.916482288067e-03
    84   -4.142730845207e-18
    85   -3.814337387944e-15
    86   -2.321950504689e-03
    87    1.061996044650e-03
    88    6.754242694069e-03
    89    1.236128298660e-02
    90    1.465784560473e-02
    91    1.601613216172e-03
    92   -9.237671809325e-15
    93   -5.387755721370e-02
    94    2.866596658193e-02
    95    2.015262162408e-03
    96   -7.635129374570e-15
    97    1.052419860961e-01
    98    1.993201473374e-02
    99    8.420688701576e-02
   100    4.570068140708e-14
   101   -3.792440826623e+00
   102    7.182706340450e-01
   103    6.264130354208e-01
   104    2.257509866914e-13
   105    2.945683246100e-03
   106    3.345620735072e-15
   107   -2.215893973138e-16
   108    5.686343504193e-03
   109   -3.993980488384e-03
   110    3.906273703433e-03
   111    6.627503060986e-03
   112    3.088959292404e-03
   113   -9.647799566780e-03
   114    1.169216140976e-15
   115   -1.978942971725e-02
   116    1.451061615932e-03
   117   -1.415460163369e-02
   118    3.315716378200e-14
   119   -6.319461952445e-02
   120    3.933439820850e-02
   121   -4.104496614012e-03
   122   -2.910507344211e-15
   123   -1.544717923370e-01
   124   -6.202838464852e-02
   125   -1.342474597012e-02
   126   -2.021693327034e-14
   127    6.419856817533e-04
   128   -1.633393410939e-15
   129   -2.953761289234e-15
   130   -1.718662018524e-03
   131   -7.368297192922e-04
   132    7.060525847455e-03
   133    1.212337609074e-02
   134    8.735145941567e-03
   135   -1.905190476206e-02
   136   -2.682689422759e-14
   137   -3.775699877664e-02
   138    1.184484975934e-02
   139   -3.134463476169e-02
   140   -6.089572320320e-15
   141   -1.736699934612e-01
   142    2.353427643952e-02
   143    4.626322012997e-02
   144   -1.623750664584e-13
   145   -1.903607293839e+00
   146    6.518714225588e-02
   147    8.577666924103e-02
   148    8.428425748993e-14
   149    4.180546046281e-03
   150   -8.477723632192e-15
   151    4.429789227183e-16
   152   -8.138824968541e-03
   153    8.221218379560e-03
   154    1.520328915577e-02
   155    2.598736542407e-02
   156    1.230631866719e-02
   157    9.635226805104e-04
   158   -1.367455345863e-14
   159   -7.348562720639e-02
   160    2.024543287955e-02
   161    5.648365016670e-03
   162   -7.124118337806e-15
   163   -3.890229805177e-01
   164   -6.363588376164e-02
   165   -6.857643059911e-02
   166   -7.429923161422e-14
   167   -2.026660972001e+00
   168   -4.790231252216e-02
   169    5.025285329945e-02
   170   -2.601686957313e-13
   171    7.002324389259e-04
   172   -1.863211532283e-15
   173    9.881680500853e-15
   174   -4.276770427130e-03
   175    6.289589565605e-03
   176   -2.709870983682e-03
   177   -4.314707257966e-03
   178    1.698243010072e-02
   179   -1.361688921722e-02
   180    2.952573515223e-14
   181    8.039410853906e-03
   182    3.144781572443e-02
   183   -2.505067017296e-02
   184    3.812172771274e-14
   185    1.496163824292e-01
   186    1.446506588779e-02
   187   -4.523946468874e-03
   188    1.697534291614e-13
   189    7.926767263856e+00
   190   -5.571103921445e-01
   191    5.734635465891e-01
   192   -9.546120715662e-13
   193    4.372352888824e-03
   194   -1.608158474999e-16
   195   -4.392027111950e-16
   196    5.825728842161e-04
   197    5.593157052757e-03
   198    1.840146862459e-03
   199    1.872759197341e-02
   200   -2.238165304340e-01
   201   -1.043996418199e+00
   202   -3.431297985153e-03
   203    5.973203520009e-03
   204    1.826964867714e-15
[5D]
