[Molden Format]
[Atoms] (Angs)
  C      1    6     -0.00714236     -1.70213747     -0.00000000
  H      2    1     -2.06882847     -1.44022412      0.00000000
  H      3    1     -0.12337987     -2.77567521      0.00000000
  H      4    1      0.04651892      1.98813947     -0.00000000
  C      5    6     -1.21953563      0.40211669      0.00000000
  O      6    8     -2.25921553      1.03043814      0.00000000
  C      7    6      1.28797806      0.34644937     -0.00000000
  O      8    8      2.31273661      1.00537216     -0.00000000
  N      9    7      0.03446295      0.97739857     -0.00000000
  N     10    7     -1.17287765     -0.98229824      0.00000000
  C     11    6      1.20107039     -1.10433419     -0.00000000
  H     12    1      2.11220096     -1.67699125     -0.00000000
[GTO]
1    0
S    6    1.000000
   4.56324000E+03    1.96665000E-03 
   6.82024000E+02    1.52306000E-02 
   1.54973000E+02    7.61269000E-02 
   4.44553000E+01    2.60801000E-01 
   1.30290000E+01    6.16462000E-01 
   1.82773000E+00    2.21006000E-01 
SP   3    1.000000
   2.09642000E+01    1.14660000E-01   4.02487000E-02 
   4.80331000E+00    9.19999000E-01   2.37594000E-01 
   1.45933000E+00   -3.03068000E-03   8.15854000E-01 
SP   1    1.000000
   4.83456000E-01    1.00000000E+00   1.00000000E+00 
SP   1    1.000000
   1.45585000E-01    1.00000000E+00   1.00000000E+00 
SP   1    1.000000
   4.38000000E-02    1.00000000E+00   1.00000000E+00 
D    1    1.000000
   6.26000000E-01    1.00000000E+00 

2    0
S    3    1.000000
   3.38650000E+01    2.54938000E-02 
   5.09479000E+00    1.90373000E-01 
   1.15879000E+00    8.52161000E-01 
S    1    1.000000
   3.25840000E-01    1.00000000E+00 
S    1    1.000000
   1.02741000E-01    1.00000000E+00 
S    1    1.000000
   3.60000000E-02    1.00000000E+00 
P    1    1.000000
   7.50000000E-01    1.00000000E+00 

3    0
S    3    1.000000
   3.38650000E+01    2.54938000E-02 
   5.09479000E+00    1.90373000E-01 
   1.15879000E+00    8.52161000E-01 
S    1    1.000000
   3.25840000E-01    1.00000000E+00 
S    1    1.000000
   1.02741000E-01    1.00000000E+00 
S    1    1.000000
   3.60000000E-02    1.00000000E+00 
P    1    1.000000
   7.50000000E-01    1.00000000E+00 

4    0
S    3    1.000000
   3.38650000E+01    2.54938000E-02 
   5.09479000E+00    1.90373000E-01 
   1.15879000E+00    8.52161000E-01 
S    1    1.000000
   3.25840000E-01    1.00000000E+00 
S    1    1.000000
   1.02741000E-01    1.00000000E+00 
S    1    1.000000
   3.60000000E-02    1.00000000E+00 
P    1    1.000000
   7.50000000E-01    1.00000000E+00 

5    0
S    6    1.000000
   4.56324000E+03    1.96665000E-03 
   6.82024000E+02    1.52306000E-02 
   1.54973000E+02    7.61269000E-02 
   4.44553000E+01    2.60801000E-01 
   1.30290000E+01    6.16462000E-01 
   1.82773000E+00    2.21006000E-01 
SP   3    1.000000
   2.09642000E+01    1.14660000E-01   4.02487000E-02 
   4.80331000E+00    9.19999000E-01   2.37594000E-01 
   1.45933000E+00   -3.03068000E-03   8.15854000E-01 
SP   1    1.000000
   4.83456000E-01    1.00000000E+00   1.00000000E+00 
SP   1    1.000000
   1.45585000E-01    1.00000000E+00   1.00000000E+00 
SP   1    1.000000
   4.38000000E-02    1.00000000E+00   1.00000000E+00 
D    1    1.000000
   6.26000000E-01    1.00000000E+00 

6    0
S    6    1.000000
   8.58850000E+03    1.89515000E-03 
   1.29723000E+03    1.43859000E-02 
   2.99296000E+02    7.07320000E-02 
   8.73771000E+01    2.40001000E-01 
   2.56789000E+01    5.94797000E-01 
   3.74004000E+00    2.80802000E-01 
SP   3    1.000000
   4.21175000E+01    1.13889000E-01   3.65114000E-02 
   9.62837000E+00    9.20811000E-01   2.37153000E-01 
   2.85332000E+00   -3.27447000E-03   8.19702000E-01 
SP   1    1.000000
   9.05661000E-01    1.00000000E+00   1.00000000E+00 
SP   1    1.000000
   2.55611000E-01    1.00000000E+00   1.00000000E+00 
SP   1    1.000000
   8.45000000E-02    1.00000000E+00   1.00000000E+00 
D    1    1.000000
   1.29200000E+00    1.00000000E+00 

7    0
S    6    1.000000
   4.56324000E+03    1.96665000E-03 
   6.82024000E+02    1.52306000E-02 
   1.54973000E+02    7.61269000E-02 
   4.44553000E+01    2.60801000E-01 
   1.30290000E+01    6.16462000E-01 
   1.82773000E+00    2.21006000E-01 
SP   3    1.000000
   2.09642000E+01    1.14660000E-01   4.02487000E-02 
   4.80331000E+00    9.19999000E-01   2.37594000E-01 
   1.45933000E+00   -3.03068000E-03   8.15854000E-01 
SP   1    1.000000
   4.83456000E-01    1.00000000E+00   1.00000000E+00 
SP   1    1.000000
   1.45585000E-01    1.00000000E+00   1.00000000E+00 
SP   1    1.000000
   4.38000000E-02    1.00000000E+00   1.00000000E+00 
D    1    1.000000
   6.26000000E-01    1.00000000E+00 

8    0
S    6    1.000000
   8.58850000E+03    1.89515000E-03 
   1.29723000E+03    1.43859000E-02 
   2.99296000E+02    7.07320000E-02 
   8.73771000E+01    2.40001000E-01 
   2.56789000E+01    5.94797000E-01 
   3.74004000E+00    2.80802000E-01 
SP   3    1.000000
   4.21175000E+01    1.13889000E-01   3.65114000E-02 
   9.62837000E+00    9.20811000E-01   2.37153000E-01 
   2.85332000E+00   -3.27447000E-03   8.19702000E-01 
SP   1    1.000000
   9.05661000E-01    1.00000000E+00   1.00000000E+00 
SP   1    1.000000
   2.55611000E-01    1.00000000E+00   1.00000000E+00 
SP   1    1.000000
   8.45000000E-02    1.00000000E+00   1.00000000E+00 
D    1    1.000000
   1.29200000E+00    1.00000000E+00 

9    0
S    6    1.000000
   6.29348000E+03    1.96979000E-03 
   9.49044000E+02    1.49613000E-02 
   2.18776000E+02    7.35006000E-02 
   6.36916000E+01    2.48937000E-01 
   1.88282000E+01    6.02460000E-01 
   2.72023000E+00    2.56202000E-01 
SP   3    1.000000
   3.06331000E+01    1.11906000E-01   3.83119000E-02 
   7.02614000E+00    9.21666000E-01   2.37403000E-01 
   2.11205000E+00   -2.56919000E-03   8.17592000E-01 
SP   1    1.000000
   6.84009000E-01    1.00000000E+00   1.00000000E+00 
SP   1    1.000000
   2.00878000E-01    1.00000000E+00   1.00000000E+00 
SP   1    1.000000
   6.39000000E-02    1.00000000E+00   1.00000000E+00 
D    1    1.000000
   9.13000000E-01    1.00000000E+00 

10    0
S    6    1.000000
   6.29348000E+03    1.96979000E-03 
   9.49044000E+02    1.49613000E-02 
   2.18776000E+02    7.35006000E-02 
   6.36916000E+01    2.48937000E-01 
   1.88282000E+01    6.02460000E-01 
   2.72023000E+00    2.56202000E-01 
SP   3    1.000000
   3.06331000E+01    1.11906000E-01   3.83119000E-02 
   7.02614000E+00    9.21666000E-01   2.37403000E-01 
   2.11205000E+00   -2.56919000E-03   8.17592000E-01 
SP   1    1.000000
   6.84009000E-01    1.00000000E+00   1.00000000E+00 
SP   1    1.000000
   2.00878000E-01    1.00000000E+00   1.00000000E+00 
SP   1    1.000000
   6.39000000E-02    1.00000000E+00   1.00000000E+00 
D    1    1.000000
   9.13000000E-01    1.00000000E+00 

11    0
S    6    1.000000
   4.56324000E+03    1.96665000E-03 
   6.82024000E+02    1.52306000E-02 
   1.54973000E+02    7.61269000E-02 
   4.44553000E+01    2.60801000E-01 
   1.30290000E+01    6.16462000E-01 
   1.82773000E+00    2.21006000E-01 
SP   3    1.000000
   2.09642000E+01    1.14660000E-01   4.02487000E-02 
   4.80331000E+00    9.19999000E-01   2.37594000E-01 
   1.45933000E+00   -3.03068000E-03   8.15854000E-01 
SP   1    1.000000
   4.83456000E-01    1.00000000E+00   1.00000000E+00 
SP   1    1.000000
   1.45585000E-01    1.00000000E+00   1.00000000E+00 
SP   1    1.000000
   4.38000000E-02    1.00000000E+00   1.00000000E+00 
D    1    1.000000
   6.26000000E-01    1.00000000E+00 

12    0
S    3    1.000000
   3.38650000E+01    2.54938000E-02 
   5.09479000E+00    1.90373000E-01 
   1.15879000E+00    8.52161000E-01 
S    1    1.000000
   3.25840000E-01    1.00000000E+00 
S    1    1.000000
   1.02741000E-01    1.00000000E+00 
S    1    1.000000
   3.60000000E-02    1.00000000E+00 
P    1    1.000000
   7.50000000E-01    1.00000000E+00 

[MO]
Sym=X
Ene= -0.488940
Spin=Alpha
Occup=1
     1    1.924219574333e-03
     2    3.418209144475e-03
     3    3.050858742562e-03
     4    1.036966824355e-02
     5   -8.831875419273e-15
     6   -1.587209231411e-02
     7    8.099642764992e-03
     8    1.647811280046e-02
     9   -7.212350933619e-15
    10   -3.504733387096e-02
    11   -1.609073221684e-02
    12    2.871213741897e-02
    13   -1.798076818014e-14
    14   -1.826339910723e+00
    15    1.797276523256e-02
    16   -2.022138572145e-01
    17    1.142714578819e-13
    18    6.329300767252e-03
    19   -2.181823777078e-15
    20    2.020106537271e-15
    21   -2.167415587190e-03
    22    9.366421590361e-04
    23    5.129847878150e-03
    24    9.387286723435e-03
    25    5.938319780352e-03
    26    7.381019071410e-02
    27   -3.972789212694e-03
    28   -2.495960306550e-03
    29   -6.574764734782e-16
    30   -5.890414898153e-03
    31   -9.470553173530e-03
    32    6.104628263052e-03
    33    1.364411440722e-01
    34    2.829550131342e-04
    35   -1.952636182930e-03
    36   -7.176218419070e-15
    37   -3.227822362860e-03
    38    4.010564031435e-03
    39    2.709287698428e-01
    40    7.247688916954e-01
    41    4.214004218114e-03
    42    1.151104882790e-02
    43   -1.057337535886e-15
    44   -2.486619789802e-03
    45   -3.875907258922e-03
    46    1.002496619077e-02
    47    5.112320984415e-03
    48    4.632877858960e-15
    49   -1.247984740452e-03
    50    1.559743422959e-02
    51    1.011565399163e-02
    52    9.644435385384e-16
    53    8.589153676919e-02
    54   -7.143239185948e-03
    55   -6.050380437246e-02
    56    3.592234914693e-14
    57    1.004856768810e+00
    58    3.103948173382e-01
    59   -2.954386245076e-01
    60   -2.274814164633e-14
    61    8.444263287809e-03
    62   -8.187813544459e-15
    63    3.252767265415e-15
    64    4.957135523143e-03
    65   -3.340349824281e-03
    66    3.300227890962e-03
    67    5.722881707654e-03
    68   -4.227469696172e-03
    69   -6.321942326667e-03
    70    2.282331922244e-15
    71   -1.937941717288e-02
    72   -7.609797641226e-03
    73   -1.040939436243e-02
    74   -7.431126037103e-15
    75   -1.859476627595e-02
    76   -4.715130079085e-03
    77   -2.208528693380e-03
    78    3.055386709831e-14
    79   -7.087586349650e-02
    80   -4.497218451344e-02
    81   -9.680315448028e-03
    82   -9.334613010025e-14
    83    8.366343555342e-04
    84    1.073747193665e-15
    85   -1.313711530507e-15
    86   -1.461038178211e-04
    87    8.405194635048e-04
    88    3.440789832415e-04
    89    1.189445524677e-03
    90    5.898800002657e-03
    91    1.944657552770e-02
    92    5.419547727992e-16
    93   -3.121995500917e-02
    94    1.500181652174e-02
    95    2.988834241446e-02
    96   -1.848921195602e-15
    97    1.193362712524e-01
    98    1.184742667406e-01
    99    2.020694917644e-01
   100    5.596372354971e-14
   101   -1.914623044483e+00
   102    1.222890561410e+00
   103    1.069579999459e+00
   104    3.056371465268e-13
   105    2.266181536255e-02
   106    1.561057360650e-15
   107   -2.728959003679e-15
   108    1.877854070919e-03
   109    1.697303723401e-03
   110    2.348719925564e-02
   111    4.070883062823e-02
   112    3.366631543673e-04
   113   -2.132941517893e-02
   114   -1.401275056850e-14
   115   -1.413192341393e-01
   116    8.246825138817e-05
   117   -2.839346828177e-02
   118   -9.336468404534e-15
   119   -2.749674055369e-01
   120    6.438741417980e-02
   121    2.093311772179e-03
   122   -3.184374230869e-14
   123   -5.831533003295e-01
   124   -1.105400425784e-01
   125   -5.743156301869e-02
   126   -5.451270922833e-14
   127    3.782931829909e-03
   128   -1.970784046747e-15
   129   -4.753754131477e-17
   130   -1.104462407701e-03
   131   -2.270671253599e-03
   132    1.814259789542e-02
   133    3.140307036213e-02
   134   -1.077700186951e-02
   135   -2.186309279515e-02
   136   -1.710178633881e-14
   137   -9.857272772253e-02
   138   -1.602960160171e-02
   139   -3.217920501430e-02
   140   -3.708801037289e-14
   141   -2.586855416977e-01
   142   -7.130895456890e-02
   143   -5.671565523284e-02
   144    1.756640168632e-15
   145   -3.555017263367e-01
   146   -1.950385561769e-01
   147   -4.547684623188e-01
   148   -4.483903580442e-14
   149    5.394719179444e-03
   150    2.964985867632e-16
   151    2.653913356349e-15
   152    1.117030256194e-04
   153    2.864181902224e-03
   154    7.747170076862e-03
   155    1.341040364261e-02
   156    1.033013885891e-03
   157   -6.080229552113e-03
   158   -4.819796860479e-15
   159   -4.374658113578e-02
   160    2.763050626158e-03
   161   -8.857435162273e-03
   162    6.458936629498e-17
   163   -8.927913137922e-02
   164   -1.587386262077e-02
   165   -4.012754410854e-02
   166   -3.317189128032e-15
   167   -8.654770504983e-01
   168   -1.684026355687e-01
   169   -2.706680491277e-01
   170    1.479744233927e-14
   171    1.902978481695e-03
   172   -7.649483922692e-16
   173   -1.023348851361e-15
   174    1.803519167089e-03
   175    2.846232260259e-03
   176    1.477044445249e-02
   177    2.562481870354e-02
   178   -1.793571525338e-02
   179   -7.658293379504e-03
   180   -2.107853677980e-15
   181   -7.660434975542e-02
   182   -2.451952442171e-02
   183   -1.510640184413e-02
   184   -6.262101415768e-15
   185   -1.843420815693e-01
   186   -9.447343004626e-02
   187    1.612359287081e-02
   188    8.673146399414e-15
   189    2.596986440146e+00
   190   -1.577927100808e+00
   191    9.601189435360e-01
   192   -2.786824231875e-13
   193    9.096405836172e-03
   194   -2.838978681871e-15
   195   -5.573012149999e-16
   196    4.255497928327e-03
   197   -9.098914572571e-04
   198   -8.460088465501e-03
   199   -1.689966819704e-02
   200    1.919718312803e-01
   201    1.643457345462e+00
   202    5.578316530191e-03
   203   -1.692363834677e-03
   204    1.667665713807e-15
Sym=X
Ene= 0.488940
Spin=Alpha
Occup=0
     1    2.387690268907e-15
     2    3.779582024036e-15
     3    1.235818950806e-15
     4   -3.260561950700e-15
     5   -1.358787627567e-01
     6   -2.659003273361e-14
     7    3.304962936994e-14
     8   -5.422039010780e-15
     9   -2.210670545314e-01
    10    3.389294799312e-13
    11   -1.385453644806e-13
    12    1.960968763963e-14
    13   -4.311851760842e-01
    14    2.135692998155e-11
    15    1.274325119415e-12
    16    3.568140235497e-12
    17   -6.583401765503e-01
    18    1.170766653155e-14
    19    2.368982765394e-02
    20    7.823815998850e-03
    21   -8.086341667063e-15
    22   -2.253910854750e-16
    23   -5.903131642142e-15
    24   -2.217713455211e-14
    25   -3.500789984975e-13
    26    1.879418558017e-12
    27   -1.765638614212e-14
    28   -1.483277073355e-14
    29   -7.461509048142e-04
    30   -1.595098914283e-14
    31   -4.375151776956e-14
    32   -3.669776363592e-13
    33   -3.174972880363e-12
    34    1.234029632880e-15
    35   -1.544678757544e-15
    36   -1.561721017647e-02
    37    1.051337871971e-15
    38    4.450178929449e-14
    39   -3.873625679427e-13
    40   -7.116398130008e-13
    41    1.015389096335e-15
    42    4.243556727152e-15
    43   -5.497072510371e-03
    44   -1.654034977405e-16
    45    1.214488713170e-15
    46   -1.121544290185e-14
    47    1.128482550041e-14
    48    1.222552850032e-01
    49    1.422596741567e-14
    50    8.147895400168e-15
    51   -2.258940835701e-14
    52    2.002608402863e-01
    53   -9.036440073317e-14
    54   -1.890080615864e-14
    55    4.751373183282e-13
    56    3.700829792949e-01
    57   -9.292942561751e-12
    58   -8.326569185054e-13
    59    3.461948611728e-12
    60    2.345164885366e-01
    61   -4.368042666239e-15
    62    2.336538113455e-02
    63   -2.031206839026e-02
    64   -3.916236552014e-15
    65   -2.153639321189e-15
    66   -2.242645316777e-15
    67   -1.372910194882e-15
    68    1.694412425089e-15
    69   -1.702521449168e-15
    70   -8.596010914720e-02
    71    2.334738055740e-16
    72    1.385660635854e-14
    73   -1.798568963373e-16
    74   -1.261489880680e-01
    75    3.335530905984e-14
    76   -3.145552689913e-14
    77   -4.342182432575e-14
    78   -1.850643841818e-01
    79   -6.632409738000e-13
    80   -2.944739925263e-13
    81    2.518508855396e-13
    82   -1.768260027585e-01
    83   -3.736573666401e-15
    84    3.425527037030e-03
    85   -2.740048431873e-03
    86    3.706022969943e-15
    87   -3.586940161631e-15
    88   -8.067309301451e-16
    89   -4.331156030152e-15
    90   -5.229407118066e-15
    91   -5.465357484367e-15
    92   -9.647479719968e-02
    93    3.516317774460e-14
    94   -1.001180794537e-14
    95   -9.771128534715e-15
    96   -1.685111559738e-01
    97   -5.495580263330e-13
    98    9.304417135383e-14
    99   -1.771013022898e-13
   100   -2.669811649310e-01
   101    1.097337751768e-11
   102    1.160327577027e-12
   103   -2.503237706673e-12
   104    2.265616084197e-01
   105   -2.150603925933e-15
   106    1.177330173401e-02
   107   -4.227975107492e-02
   108   -8.423793475127e-15
   109    8.076783529249e-15
   110   -1.761421664157e-16
   111    2.131494701236e-15
   112   -1.448042854469e-14
   113    9.312406485476e-15
   114    1.804884493793e-02
   115   -1.606135484265e-14
   116   -1.780604900981e-14
   117   -8.164028693098e-16
   118    2.193335551100e-02
   119    1.223082102145e-13
   120   -4.257946351585e-14
   121    3.222068770369e-14
   122    5.302161096168e-02
   123   -5.006346456991e-13
   124   -2.258444526824e-13
   125   -9.070865141836e-14
   126    3.644400682136e-02
   127    3.634815815947e-15
   128    9.956609818021e-03
   129    1.714248886405e-03
   130    2.148439605485e-15
   131    7.578518387887e-16
   132   -4.529909209745e-15
   133   -7.901302718472e-15
   134   -8.552953353221e-15
   135    2.143552889126e-14
   136   -3.502553057412e-02
   137    2.349310305388e-14
   138   -1.237373078062e-14
   139    3.189195151100e-14
   140   -5.700493184845e-02
   141    6.860701295355e-15
   142    1.291271545770e-13
   143   -1.682284711159e-14
   144   -6.760924934023e-02
   145    2.549650407482e-12
   146   -8.106279150138e-14
   147   -2.874110886889e-13
   148   -2.847174769213e-01
   149   -1.272319038838e-14
   150   -2.380549953237e-02
   151   -4.525384860892e-03
   152   -1.005514117548e-15
   153   -1.019908654210e-14
   154   -9.600990931517e-16
   155    6.641520355109e-16
   156    3.038435364562e-15
   157    1.291488530188e-14
   158    1.202842357081e-02
   159   -6.142475764380e-15
   160    7.138787065773e-15
   161    2.660438046640e-14
   162    1.824496923976e-02
   163    1.875695502999e-13
   164   -5.878596440011e-14
   165    8.393365671273e-14
   166    3.622094877277e-02
   167    1.862081300582e-13
   168   -1.939713874343e-12
   169    2.322619173887e-12
   170    6.064405746822e-02
   171   -8.161628880588e-15
   172   -1.179025807484e-02
   173    2.491521415113e-02
   174    1.133303667496e-14
   175   -1.976477527487e-15
   176    1.040343823917e-14
   177    1.207570301636e-14
   178   -3.619940003218e-15
   179    2.188112931800e-14
   180    1.120191769104e-01
   181   -2.270428281711e-14
   182   -2.093562548265e-15
   183   -1.574684144497e-14
   184    1.800028471061e-01
   185   -3.135131474428e-13
   186   -3.088168581415e-14
   187    2.850902413815e-13
   188    4.008179855361e-01
   189   -2.270675817111e-11
   190    1.196332906572e-12
   191   -3.274691200969e-12
   192    7.566191608334e-01
   193    8.305467514124e-15
   194    2.586323513016e-02
   195    6.703501454751e-03
   196   -9.691748497014e-15
   197   -2.611603384716e-15
   198   -1.946296222400e-15
   199    1.078720067320e-14
   200    5.393293893858e-13
   201    9.411795016825e-13
   202    2.863480737027e-15
   203    1.999208399200e-16
   204    1.804972646207e-02
[5D]
