[Molden Format]
[Atoms] (Angs)
  C      1    6     -0.00714236     -1.70213747     -0.00000000
  H      2    1     -2.06882847     -1.44022412      0.00000000
  H      3    1     -0.12337987     -2.77567521      0.00000000
  H      4    1      0.04651892      1.98813947     -0.00000000
  C      5    6     -1.21953563      0.40211669      0.00000000
  O      6    8     -2.25921553      1.03043814      0.00000000
  C      7    6      1.28797806      0.34644937     -0.00000000
  O      8    8      2.31273661      1.00537216     -0.00000000
  N      9    7      0.03446295      0.97739857     -0.00000000
  N     10    7     -1.17287765     -0.98229824      0.00000000
  C     11    6      1.20107039     -1.10433419     -0.00000000
  H     12    1      2.11220096     -1.67699125     -0.00000000
[GTO]
1    0
S    6    1.000000
   4.56324000E+03    1.96665000E-03 
   6.82024000E+02    1.52306000E-02 
   1.54973000E+02    7.61269000E-02 
   4.44553000E+01    2.60801000E-01 
   1.30290000E+01    6.16462000E-01 
   1.82773000E+00    2.21006000E-01 
SP   3    1.000000
   2.09642000E+01    1.14660000E-01   4.02487000E-02 
   4.80331000E+00    9.19999000E-01   2.37594000E-01 
   1.45933000E+00   -3.03068000E-03   8.15854000E-01 
SP   1    1.000000
   4.83456000E-01    1.00000000E+00   1.00000000E+00 
SP   1    1.000000
   1.45585000E-01    1.00000000E+00   1.00000000E+00 
SP   1    1.000000
   4.38000000E-02    1.00000000E+00   1.00000000E+00 
D    1    1.000000
   6.26000000E-01    1.00000000E+00 

2    0
S    3    1.000000
   3.38650000E+01    2.54938000E-02 
   5.09479000E+00    1.90373000E-01 
   1.15879000E+00    8.52161000E-01 
S    1    1.000000
   3.25840000E-01    1.00000000E+00 
S    1    1.000000
   1.02741000E-01    1.00000000E+00 
S    1    1.000000
   3.60000000E-02    1.00000000E+00 
P    1    1.000000
   7.50000000E-01    1.00000000E+00 

3    0
S    3    1.000000
   3.38650000E+01    2.54938000E-02 
   5.09479000E+00    1.90373000E-01 
   1.15879000E+00    8.52161000E-01 
S    1    1.000000
   3.25840000E-01    1.00000000E+00 
S    1    1.000000
   1.02741000E-01    1.00000000E+00 
S    1    1.000000
   3.60000000E-02    1.00000000E+00 
P    1    1.000000
   7.50000000E-01    1.00000000E+00 

4    0
S    3    1.000000
   3.38650000E+01    2.54938000E-02 
   5.09479000E+00    1.90373000E-01 
   1.15879000E+00    8.52161000E-01 
S    1    1.000000
   3.25840000E-01    1.00000000E+00 
S    1    1.000000
   1.02741000E-01    1.00000000E+00 
S    1    1.000000
   3.60000000E-02    1.00000000E+00 
P    1    1.000000
   7.50000000E-01    1.00000000E+00 

5    0
S    6    1.000000
   4.56324000E+03    1.96665000E-03 
   6.82024000E+02    1.52306000E-02 
   1.54973000E+02    7.61269000E-02 
   4.44553000E+01    2.60801000E-01 
   1.30290000E+01    6.16462000E-01 
   1.82773000E+00    2.21006000E-01 
SP   3    1.000000
   2.09642000E+01    1.14660000E-01   4.02487000E-02 
   4.80331000E+00    9.19999000E-01   2.37594000E-01 
   1.45933000E+00   -3.03068000E-03   8.15854000E-01 
SP   1    1.000000
   4.83456000E-01    1.00000000E+00   1.00000000E+00 
SP   1    1.000000
   1.45585000E-01    1.00000000E+00   1.00000000E+00 
SP   1    1.000000
   4.38000000E-02    1.00000000E+00   1.00000000E+00 
D    1    1.000000
   6.26000000E-01    1.00000000E+00 

6    0
S    6    1.000000
   8.58850000E+03    1.89515000E-03 
   1.29723000E+03    1.43859000E-02 
   2.99296000E+02    7.07320000E-02 
   8.73771000E+01    2.40001000E-01 
   2.56789000E+01    5.94797000E-01 
   3.74004000E+00    2.80802000E-01 
SP   3    1.000000
   4.21175000E+01    1.13889000E-01   3.65114000E-02 
   9.62837000E+00    9.20811000E-01   2.37153000E-01 
   2.85332000E+00   -3.27447000E-03   8.19702000E-01 
SP   1    1.000000
   9.05661000E-01    1.00000000E+00   1.00000000E+00 
SP   1    1.000000
   2.55611000E-01    1.00000000E+00   1.00000000E+00 
SP   1    1.000000
   8.45000000E-02    1.00000000E+00   1.00000000E+00 
D    1    1.000000
   1.29200000E+00    1.00000000E+00 

7    0
S    6    1.000000
   4.56324000E+03    1.96665000E-03 
   6.82024000E+02    1.52306000E-02 
   1.54973000E+02    7.61269000E-02 
   4.44553000E+01    2.60801000E-01 
   1.30290000E+01    6.16462000E-01 
   1.82773000E+00    2.21006000E-01 
SP   3    1.000000
   2.09642000E+01    1.14660000E-01   4.02487000E-02 
   4.80331000E+00    9.19999000E-01   2.37594000E-01 
   1.45933000E+00   -3.03068000E-03   8.15854000E-01 
SP   1    1.000000
   4.83456000E-01    1.00000000E+00   1.00000000E+00 
SP   1    1.000000
   1.45585000E-01    1.00000000E+00   1.00000000E+00 
SP   1    1.000000
   4.38000000E-02    1.00000000E+00   1.00000000E+00 
D    1    1.000000
   6.26000000E-01    1.00000000E+00 

8    0
S    6    1.000000
   8.58850000E+03    1.89515000E-03 
   1.29723000E+03    1.43859000E-02 
   2.99296000E+02    7.07320000E-02 
   8.73771000E+01    2.40001000E-01 
   2.56789000E+01    5.94797000E-01 
   3.74004000E+00    2.80802000E-01 
SP   3    1.000000
   4.21175000E+01    1.13889000E-01   3.65114000E-02 
   9.62837000E+00    9.20811000E-01   2.37153000E-01 
   2.85332000E+00   -3.27447000E-03   8.19702000E-01 
SP   1    1.000000
   9.05661000E-01    1.00000000E+00   1.00000000E+00 
SP   1    1.000000
   2.55611000E-01    1.00000000E+00   1.00000000E+00 
SP   1    1.000000
   8.45000000E-02    1.00000000E+00   1.00000000E+00 
D    1    1.000000
   1.29200000E+00    1.00000000E+00 

9    0
S    6    1.000000
   6.29348000E+03    1.96979000E-03 
   9.49044000E+02    1.49613000E-02 
   2.18776000E+02    7.35006000E-02 
   6.36916000E+01    2.48937000E-01 
   1.88282000E+01    6.02460000E-01 
   2.72023000E+00    2.56202000E-01 
SP   3    1.000000
   3.06331000E+01    1.11906000E-01   3.83119000E-02 
   7.02614000E+00    9.21666000E-01   2.37403000E-01 
   2.11205000E+00   -2.56919000E-03   8.17592000E-01 
SP   1    1.000000
   6.84009000E-01    1.00000000E+00   1.00000000E+00 
SP   1    1.000000
   2.00878000E-01    1.00000000E+00   1.00000000E+00 
SP   1    1.000000
   6.39000000E-02    1.00000000E+00   1.00000000E+00 
D    1    1.000000
   9.13000000E-01    1.00000000E+00 

10    0
S    6    1.000000
   6.29348000E+03    1.96979000E-03 
   9.49044000E+02    1.49613000E-02 
   2.18776000E+02    7.35006000E-02 
   6.36916000E+01    2.48937000E-01 
   1.88282000E+01    6.02460000E-01 
   2.72023000E+00    2.56202000E-01 
SP   3    1.000000
   3.06331000E+01    1.11906000E-01   3.83119000E-02 
   7.02614000E+00    9.21666000E-01   2.37403000E-01 
   2.11205000E+00   -2.56919000E-03   8.17592000E-01 
SP   1    1.000000
   6.84009000E-01    1.00000000E+00   1.00000000E+00 
SP   1    1.000000
   2.00878000E-01    1.00000000E+00   1.00000000E+00 
SP   1    1.000000
   6.39000000E-02    1.00000000E+00   1.00000000E+00 
D    1    1.000000
   9.13000000E-01    1.00000000E+00 

11    0
S    6    1.000000
   4.56324000E+03    1.96665000E-03 
   6.82024000E+02    1.52306000E-02 
   1.54973000E+02    7.61269000E-02 
   4.44553000E+01    2.60801000E-01 
   1.30290000E+01    6.16462000E-01 
   1.82773000E+00    2.21006000E-01 
SP   3    1.000000
   2.09642000E+01    1.14660000E-01   4.02487000E-02 
   4.80331000E+00    9.19999000E-01   2.37594000E-01 
   1.45933000E+00   -3.03068000E-03   8.15854000E-01 
SP   1    1.000000
   4.83456000E-01    1.00000000E+00   1.00000000E+00 
SP   1    1.000000
   1.45585000E-01    1.00000000E+00   1.00000000E+00 
SP   1    1.000000
   4.38000000E-02    1.00000000E+00   1.00000000E+00 
D    1    1.000000
   6.26000000E-01    1.00000000E+00 

12    0
S    3    1.000000
   3.38650000E+01    2.54938000E-02 
   5.09479000E+00    1.90373000E-01 
   1.15879000E+00    8.52161000E-01 
S    1    1.000000
   3.25840000E-01    1.00000000E+00 
S    1    1.000000
   1.02741000E-01    1.00000000E+00 
S    1    1.000000
   3.60000000E-02    1.00000000E+00 
P    1    1.000000
   7.50000000E-01    1.00000000E+00 

[MO]
Sym=X
Ene= -0.496085
Spin=Alpha
Occup=1
     1   -2.677714891090e-15
     2    1.393130452483e-15
     3   -1.125443457925e-15
     4    1.327926212341e-14
     5   -2.973986606340e-02
     6   -1.304417276491e-14
     7    1.181283884822e-14
     8    1.029985868874e-14
     9   -4.772913583495e-02
    10   -3.703685805121e-13
    11   -9.450343523143e-14
    12   -1.188385449257e-13
    13   -8.626657664754e-02
    14    6.357700550112e-12
    15    2.893557936162e-12
    16   -2.215882463838e-12
    17    4.628319302395e-01
    18    3.014593737957e-15
    19    3.123129275446e-03
    20   -4.541868614252e-03
    21   -6.039905160171e-15
    22    9.738456290424e-15
    23   -1.473228712945e-15
    24    2.641575225128e-13
    25   -3.913062141512e-13
    26   -1.851215834197e-13
    27    1.152938656293e-14
    28    5.225368391805e-15
    29    4.514774625741e-03
    30    8.774613096510e-15
    31    8.233502753969e-14
    32   -3.758683513412e-13
    33   -2.114469023345e-12
    34    1.182435700471e-15
    35   -8.902758195448e-16
    36   -4.710124042503e-04
    37   -2.849864649661e-15
    38   -1.249106243017e-13
    39   -5.854760197150e-13
    40   -3.072612994347e-13
    41    7.649663606290e-16
    42    8.322722955001e-15
    43    1.485474129279e-03
    44    6.920009433683e-16
    45    4.927959812295e-15
    46   -8.658429743617e-15
    47   -1.541188990565e-15
    48   -4.950285715979e-02
    49   -2.677161730703e-14
    50    4.306100444781e-15
    51    1.672137188117e-14
    52   -9.249659937573e-02
    53    3.461471525390e-13
    54   -5.830973370306e-13
    55   -2.004428153953e-13
    56   -9.440334472327e-02
    57    2.887893270472e-12
    58   -3.201894312141e-13
    59   -1.864530405428e-12
    60    1.731529641523e+00
    61    1.247675619832e-16
    62    1.022186242895e-03
    63   -3.835463020975e-03
    64   -4.524953771940e-15
    65   -4.014406607587e-15
    66   -1.297853161714e-15
    67   -4.039952526231e-15
    68    3.221721363574e-15
    69    3.309355395638e-15
    70   -4.563692976935e-02
    71    8.842776977533e-15
    72    1.675558865811e-14
    73    6.604903150578e-15
    74   -7.047793630522e-02
    75   -2.614392124795e-14
    76   -4.704909265875e-14
    77    3.782738329981e-14
    78   -2.170412739266e-02
    79   -1.074459016759e-12
    80   -1.455077401129e-13
    81    5.909132218541e-13
    82   -1.071283029743e-01
    83   -1.009146341582e-15
    84   -7.666296780346e-03
    85    4.147153199205e-03
    86    2.573814421783e-15
    87   -9.493748047353e-16
    88    5.191887638140e-15
    89    7.107872006617e-15
    90   -2.578497250342e-15
    91   -6.590610791794e-15
    92   -3.134018287576e-03
    93   -3.363030024357e-14
    94    2.124935928519e-14
    95    6.210046600783e-15
    96   -1.167221934347e-02
    97   -1.576291275982e-13
    98   -1.414650683963e-13
    99   -4.226383112416e-13
   100    2.446486750027e-02
   101   -9.219705097801e-12
   102    1.331289115243e-13
   103    2.246568230208e-12
   104    3.886343585057e-01
   105    2.957684886526e-16
   106    1.679214569457e-03
   107   -2.973228725805e-03
   108   -3.710268533590e-15
   109    6.723901398252e-15
   110   -2.833281560095e-16
   111   -1.592710355564e-15
   112   -8.512057628477e-15
   113    1.270088233725e-14
   114   -1.093670164151e-02
   115    1.054046178226e-15
   116   -3.782746524555e-15
   117    1.367052525644e-14
   118   -1.679645918262e-02
   119    6.151455874243e-14
   120   -4.670817561024e-14
   121    4.695246227212e-14
   122   -2.063055078239e-02
   123    5.115096193363e-13
   124   -2.733115360097e-13
   125   -3.591008980085e-13
   126   -2.614529921398e-02
   127    1.453136731971e-15
   128    8.728473250001e-04
   129    5.576002448413e-04
   130   -4.211106268211e-16
   131   -3.706901220945e-15
   132   -5.053782936936e-16
   133    9.187190009746e-16
   134   -4.091941670779e-15
   135    3.961769846630e-15
   136   -2.503252259426e-02
   137   -3.509332706527e-14
   138    1.255400529176e-15
   139   -7.808523189012e-15
   140   -5.648227701910e-02
   141    3.681751176210e-13
   142   -1.078964320914e-13
   143    1.751003021610e-13
   144    1.156847387237e-02
   145    2.320974858060e-12
   146   -7.564167583452e-14
   147    2.191077810740e-13
   148   -6.559261740218e-01
   149   -8.228987878211e-16
   150    2.463728910897e-03
   151    3.018398368391e-03
   152   -3.858941120736e-15
   153    1.167125032696e-16
   154    4.365491591292e-17
   155    6.951052565350e-15
   156    8.024267853813e-16
   157    1.312375508716e-14
   158   -2.040726157028e-02
   159   -1.848138187648e-14
   160   -2.551616877895e-14
   161    2.474865816226e-14
   162   -4.786100154665e-02
   163   -2.989534963208e-14
   164    4.168179343986e-13
   165    7.417542139163e-14
   166    1.912859580841e-02
   167   -6.747118546461e-13
   168   -5.550384894215e-13
   169   -7.233572450946e-13
   170   -5.269542568631e-01
   171   -1.425764632187e-15
   172   -5.341984007692e-03
   173   -2.046683781049e-03
   174   -1.078511466099e-15
   175   -4.657884121511e-15
   176    3.945703133806e-15
   177    7.713463856963e-15
   178   -1.662476204605e-14
   179    8.113159767184e-15
   180   -7.161937189744e-03
   181   -2.797343300136e-14
   182   -1.381526395708e-14
   183    2.837608040291e-15
   184   -1.028486415058e-02
   185   -2.367411726521e-13
   186   -4.260439418144e-13
   187   -1.560491997600e-13
   188   -7.486005678838e-03
   189   -4.039736762047e-13
   190    5.520268987337e-13
   191    5.670546168282e-12
   192   -4.400817425956e-01
   193   -7.123103484288e-15
   194    2.813038225428e-03
   195    2.000583683580e-03
   196    1.061564525433e-14
   197   -1.328483970423e-15
   198    1.077562651629e-14
   199    8.584950349970e-15
   200    9.952657178232e-13
   201    2.279381113440e-12
   202    1.689879935649e-15
   203    6.024949387505e-16
   204    3.673785662571e-04
Sym=X
Ene= 0.496085
Spin=Alpha
Occup=0
     1   -1.082305689206e-15
     2    4.063544480449e-16
     3   -4.127475939761e-15
     4   -1.605656954201e-14
     5   -7.337384883798e-02
     6    3.644054292119e-14
     7   -4.922854345903e-14
     8   -4.553527169264e-14
     9   -7.646991087385e-02
    10   -3.879102995364e-13
    11   -7.889298558615e-14
    12   -1.260322023693e-13
    13   -3.725595539064e-01
    14   -7.389434326588e-12
    15   -1.561498176928e-12
    16    1.533397952440e-12
    17    1.691994893194e+00
    18    1.569401403715e-14
    19   -2.140894857234e-03
    20   -1.631471921207e-02
    21    2.527349191411e-15
    22   -1.901009575196e-14
    23    5.911375875468e-15
    24   -1.211684985429e-13
    25   -4.461445957211e-14
    26    1.686146223806e-12
    27   -7.905211212711e-15
    28    3.371584275653e-15
    29    5.578507027552e-03
    30   -2.446229485695e-15
    31   -8.384078341599e-14
    32    4.152974618346e-13
    33    1.096461723185e-12
    34    1.358597468045e-14
    35    4.896555298051e-15
    36    7.775282496407e-03
    37    1.808990986777e-14
    38    7.378965648621e-14
    39    8.917637828701e-13
    40   -2.164895745716e-12
    41   -9.070963632199e-15
    42    2.782784457540e-15
    43   -7.261910011565e-03
    44   -1.013980362236e-15
    45   -1.532513131673e-15
    46    1.386479729298e-14
    47   -6.463242496605e-15
    48    2.372122844444e-02
    49   -1.773053425798e-14
    50   -4.036878593877e-14
    51   -3.740175176347e-15
    52    2.684792157271e-02
    53   -5.144373229847e-14
    54    4.631804798225e-13
    55    1.648432670817e-13
    56    1.140389228790e-01
    57   -1.620572665057e-12
    58    1.543670353380e-12
    59    3.984919893748e-12
    60   -9.319092642003e-01
    61   -6.441008990726e-16
    62   -7.049143123372e-03
    63   -1.528713072547e-03
    64    1.153386368396e-14
    65   -9.926415346183e-16
    66    3.135569991428e-15
    67    5.178602043040e-15
    68    7.567179365155e-16
    69   -4.690777949214e-15
    70    2.942185340675e-02
    71   -1.405409313016e-14
    72   -1.750351472793e-14
    73   -6.298843258065e-15
    74    4.059534887001e-02
    75   -3.956770355753e-14
    76    2.403552977995e-14
    77    4.750398745728e-15
    78    3.838337399273e-02
    79    5.446872094316e-13
    80   -1.784486589292e-14
    81   -6.654010594398e-13
    82   -7.028362108053e-02
    83    6.474367761974e-15
    84    3.588190346557e-03
    85   -4.506100293316e-03
    86   -1.841651947173e-15
    87    3.696644763973e-15
    88   -5.075116083358e-15
    89   -8.273322173025e-15
    90    6.901703702303e-15
    91    2.518024560090e-15
    92    2.628561718898e-02
    93    5.890146802118e-14
    94    1.271973196418e-15
    95    2.588200276354e-14
    96    4.092320493076e-02
    97   -1.483401125697e-13
    98    2.565840770857e-13
    99    5.306805792054e-13
   100    1.103544970622e-01
   101   -1.910546441776e-12
   102    7.844522240379e-13
   103    1.704146965847e-12
   104    3.830380718048e-01
   105    1.129416300171e-14
   106   -5.601667575670e-03
   107   -4.056704065400e-04
   108    1.798611893699e-14
   109   -2.839213562629e-15
   110    1.947873060021e-16
   111   -3.548966443542e-15
   112    1.251920327588e-14
   113   -1.866255058755e-14
   114   -2.043866094349e-02
   115    2.126713799664e-14
   116   -3.809831182853e-16
   117   -8.887334793846e-15
   118   -3.056115095872e-02
   119   -1.456095873020e-13
   120    9.228238705401e-14
   121   -4.249870518030e-14
   122   -4.324772163956e-02
   123   -2.994258044432e-13
   124    1.620212771275e-13
   125    8.770679094852e-14
   126   -8.439392077884e-02
   127   -3.672724077095e-15
   128   -4.456593074198e-04
   129   -1.059665075644e-03
   130   -2.593132744694e-15
   131    3.856338641906e-15
   132    2.551979335929e-15
   133    3.033135700033e-15
   134    7.709957718332e-15
   135   -1.178107294381e-14
   136    5.660072670563e-03
   137    1.029468266549e-14
   138    7.644520666991e-16
   139    1.216397158131e-14
   140    7.131685673946e-03
   141   -2.185617051316e-13
   142    1.404544418255e-13
   143   -2.502101847648e-13
   144    1.926157280764e-02
   145   -3.267337864511e-12
   146    1.628214283086e-13
   147   -3.778583960872e-13
   148   -2.276119355823e-01
   149   -7.261609994667e-16
   150    3.237587995237e-03
   151   -6.193206480516e-03
   152   -1.275462640571e-15
   153    1.239995136657e-15
   154    2.055567410060e-15
   155    2.088171554645e-15
   156    8.118731723248e-15
   157   -9.389142522004e-15
   158   -1.639253997429e-02
   159   -8.844956204166e-15
   160    1.861749513676e-14
   161   -1.294852943130e-14
   162   -2.800623016107e-02
   163    9.253322096792e-15
   164   -1.243031094214e-13
   165   -5.718068306230e-14
   166   -2.479934136186e-02
   167    2.194394999910e-12
   168   -3.916213601970e-13
   169    4.166130611329e-13
   170    1.658434533819e-01
   171   -1.790245037781e-15
   172   -7.936914973013e-03
   173    7.344750002427e-04
   174    3.080186405855e-15
   175   -3.925758923387e-15
   176   -7.454773451244e-15
   177   -3.375478604949e-15
   178    3.309027722161e-14
   179   -1.502517410665e-14
   180   -3.727581539478e-02
   181   -3.974790990091e-14
   182   -2.444262677522e-17
   183   -7.322393405633e-15
   184   -4.023936289104e-02
   185    1.017732235584e-12
   186    8.651786679594e-14
   187    2.138827655737e-13
   188   -1.352471061494e-01
   189    9.786105476706e-12
   190   -3.111375256071e-12
   191   -1.408551504587e-12
   192   -4.754957099666e-01
   193   -2.629155955348e-14
   194    1.067820154188e-02
   195    2.012034090650e-03
   196   -9.776148705011e-15
   197    9.141993719471e-15
   198   -9.528203370538e-15
   199   -3.706617362555e-14
   200   -6.269735325062e-13
   201    6.848305232354e-13
   202   -2.747672996230e-16
   203   -2.210914493859e-15
   204    2.280822549012e-03
[5D]
