[Molden Format]
[Atoms] (Angs)
  C      1    6     -0.00714236     -1.70213747     -0.00000000
  H      2    1     -2.06882847     -1.44022412      0.00000000
  H      3    1     -0.12337987     -2.77567521      0.00000000
  H      4    1      0.04651892      1.98813947     -0.00000000
  C      5    6     -1.21953563      0.40211669      0.00000000
  O      6    8     -2.25921553      1.03043814      0.00000000
  C      7    6      1.28797806      0.34644937     -0.00000000
  O      8    8      2.31273661      1.00537216     -0.00000000
  N      9    7      0.03446295      0.97739857     -0.00000000
  N     10    7     -1.17287765     -0.98229824      0.00000000
  C     11    6      1.20107039     -1.10433419     -0.00000000
  H     12    1      2.11220096     -1.67699125     -0.00000000
[GTO]
1    0
S    6    1.000000
   4.56324000E+03    1.96665000E-03 
   6.82024000E+02    1.52306000E-02 
   1.54973000E+02    7.61269000E-02 
   4.44553000E+01    2.60801000E-01 
   1.30290000E+01    6.16462000E-01 
   1.82773000E+00    2.21006000E-01 
SP   3    1.000000
   2.09642000E+01    1.14660000E-01   4.02487000E-02 
   4.80331000E+00    9.19999000E-01   2.37594000E-01 
   1.45933000E+00   -3.03068000E-03   8.15854000E-01 
SP   1    1.000000
   4.83456000E-01    1.00000000E+00   1.00000000E+00 
SP   1    1.000000
   1.45585000E-01    1.00000000E+00   1.00000000E+00 
SP   1    1.000000
   4.38000000E-02    1.00000000E+00   1.00000000E+00 
D    1    1.000000
   6.26000000E-01    1.00000000E+00 

2    0
S    3    1.000000
   3.38650000E+01    2.54938000E-02 
   5.09479000E+00    1.90373000E-01 
   1.15879000E+00    8.52161000E-01 
S    1    1.000000
   3.25840000E-01    1.00000000E+00 
S    1    1.000000
   1.02741000E-01    1.00000000E+00 
S    1    1.000000
   3.60000000E-02    1.00000000E+00 
P    1    1.000000
   7.50000000E-01    1.00000000E+00 

3    0
S    3    1.000000
   3.38650000E+01    2.54938000E-02 
   5.09479000E+00    1.90373000E-01 
   1.15879000E+00    8.52161000E-01 
S    1    1.000000
   3.25840000E-01    1.00000000E+00 
S    1    1.000000
   1.02741000E-01    1.00000000E+00 
S    1    1.000000
   3.60000000E-02    1.00000000E+00 
P    1    1.000000
   7.50000000E-01    1.00000000E+00 

4    0
S    3    1.000000
   3.38650000E+01    2.54938000E-02 
   5.09479000E+00    1.90373000E-01 
   1.15879000E+00    8.52161000E-01 
S    1    1.000000
   3.25840000E-01    1.00000000E+00 
S    1    1.000000
   1.02741000E-01    1.00000000E+00 
S    1    1.000000
   3.60000000E-02    1.00000000E+00 
P    1    1.000000
   7.50000000E-01    1.00000000E+00 

5    0
S    6    1.000000
   4.56324000E+03    1.96665000E-03 
   6.82024000E+02    1.52306000E-02 
   1.54973000E+02    7.61269000E-02 
   4.44553000E+01    2.60801000E-01 
   1.30290000E+01    6.16462000E-01 
   1.82773000E+00    2.21006000E-01 
SP   3    1.000000
   2.09642000E+01    1.14660000E-01   4.02487000E-02 
   4.80331000E+00    9.19999000E-01   2.37594000E-01 
   1.45933000E+00   -3.03068000E-03   8.15854000E-01 
SP   1    1.000000
   4.83456000E-01    1.00000000E+00   1.00000000E+00 
SP   1    1.000000
   1.45585000E-01    1.00000000E+00   1.00000000E+00 
SP   1    1.000000
   4.38000000E-02    1.00000000E+00   1.00000000E+00 
D    1    1.000000
   6.26000000E-01    1.00000000E+00 

6    0
S    6    1.000000
   8.58850000E+03    1.89515000E-03 
   1.29723000E+03    1.43859000E-02 
   2.99296000E+02    7.07320000E-02 
   8.73771000E+01    2.40001000E-01 
   2.56789000E+01    5.94797000E-01 
   3.74004000E+00    2.80802000E-01 
SP   3    1.000000
   4.21175000E+01    1.13889000E-01   3.65114000E-02 
   9.62837000E+00    9.20811000E-01   2.37153000E-01 
   2.85332000E+00   -3.27447000E-03   8.19702000E-01 
SP   1    1.000000
   9.05661000E-01    1.00000000E+00   1.00000000E+00 
SP   1    1.000000
   2.55611000E-01    1.00000000E+00   1.00000000E+00 
SP   1    1.000000
   8.45000000E-02    1.00000000E+00   1.00000000E+00 
D    1    1.000000
   1.29200000E+00    1.00000000E+00 

7    0
S    6    1.000000
   4.56324000E+03    1.96665000E-03 
   6.82024000E+02    1.52306000E-02 
   1.54973000E+02    7.61269000E-02 
   4.44553000E+01    2.60801000E-01 
   1.30290000E+01    6.16462000E-01 
   1.82773000E+00    2.21006000E-01 
SP   3    1.000000
   2.09642000E+01    1.14660000E-01   4.02487000E-02 
   4.80331000E+00    9.19999000E-01   2.37594000E-01 
   1.45933000E+00   -3.03068000E-03   8.15854000E-01 
SP   1    1.000000
   4.83456000E-01    1.00000000E+00   1.00000000E+00 
SP   1    1.000000
   1.45585000E-01    1.00000000E+00   1.00000000E+00 
SP   1    1.000000
   4.38000000E-02    1.00000000E+00   1.00000000E+00 
D    1    1.000000
   6.26000000E-01    1.00000000E+00 

8    0
S    6    1.000000
   8.58850000E+03    1.89515000E-03 
   1.29723000E+03    1.43859000E-02 
   2.99296000E+02    7.07320000E-02 
   8.73771000E+01    2.40001000E-01 
   2.56789000E+01    5.94797000E-01 
   3.74004000E+00    2.80802000E-01 
SP   3    1.000000
   4.21175000E+01    1.13889000E-01   3.65114000E-02 
   9.62837000E+00    9.20811000E-01   2.37153000E-01 
   2.85332000E+00   -3.27447000E-03   8.19702000E-01 
SP   1    1.000000
   9.05661000E-01    1.00000000E+00   1.00000000E+00 
SP   1    1.000000
   2.55611000E-01    1.00000000E+00   1.00000000E+00 
SP   1    1.000000
   8.45000000E-02    1.00000000E+00   1.00000000E+00 
D    1    1.000000
   1.29200000E+00    1.00000000E+00 

9    0
S    6    1.000000
   6.29348000E+03    1.96979000E-03 
   9.49044000E+02    1.49613000E-02 
   2.18776000E+02    7.35006000E-02 
   6.36916000E+01    2.48937000E-01 
   1.88282000E+01    6.02460000E-01 
   2.72023000E+00    2.56202000E-01 
SP   3    1.000000
   3.06331000E+01    1.11906000E-01   3.83119000E-02 
   7.02614000E+00    9.21666000E-01   2.37403000E-01 
   2.11205000E+00   -2.56919000E-03   8.17592000E-01 
SP   1    1.000000
   6.84009000E-01    1.00000000E+00   1.00000000E+00 
SP   1    1.000000
   2.00878000E-01    1.00000000E+00   1.00000000E+00 
SP   1    1.000000
   6.39000000E-02    1.00000000E+00   1.00000000E+00 
D    1    1.000000
   9.13000000E-01    1.00000000E+00 

10    0
S    6    1.000000
   6.29348000E+03    1.96979000E-03 
   9.49044000E+02    1.49613000E-02 
   2.18776000E+02    7.35006000E-02 
   6.36916000E+01    2.48937000E-01 
   1.88282000E+01    6.02460000E-01 
   2.72023000E+00    2.56202000E-01 
SP   3    1.000000
   3.06331000E+01    1.11906000E-01   3.83119000E-02 
   7.02614000E+00    9.21666000E-01   2.37403000E-01 
   2.11205000E+00   -2.56919000E-03   8.17592000E-01 
SP   1    1.000000
   6.84009000E-01    1.00000000E+00   1.00000000E+00 
SP   1    1.000000
   2.00878000E-01    1.00000000E+00   1.00000000E+00 
SP   1    1.000000
   6.39000000E-02    1.00000000E+00   1.00000000E+00 
D    1    1.000000
   9.13000000E-01    1.00000000E+00 

11    0
S    6    1.000000
   4.56324000E+03    1.96665000E-03 
   6.82024000E+02    1.52306000E-02 
   1.54973000E+02    7.61269000E-02 
   4.44553000E+01    2.60801000E-01 
   1.30290000E+01    6.16462000E-01 
   1.82773000E+00    2.21006000E-01 
SP   3    1.000000
   2.09642000E+01    1.14660000E-01   4.02487000E-02 
   4.80331000E+00    9.19999000E-01   2.37594000E-01 
   1.45933000E+00   -3.03068000E-03   8.15854000E-01 
SP   1    1.000000
   4.83456000E-01    1.00000000E+00   1.00000000E+00 
SP   1    1.000000
   1.45585000E-01    1.00000000E+00   1.00000000E+00 
SP   1    1.000000
   4.38000000E-02    1.00000000E+00   1.00000000E+00 
D    1    1.000000
   6.26000000E-01    1.00000000E+00 

12    0
S    3    1.000000
   3.38650000E+01    2.54938000E-02 
   5.09479000E+00    1.90373000E-01 
   1.15879000E+00    8.52161000E-01 
S    1    1.000000
   3.25840000E-01    1.00000000E+00 
S    1    1.000000
   1.02741000E-01    1.00000000E+00 
S    1    1.000000
   3.60000000E-02    1.00000000E+00 
P    1    1.000000
   7.50000000E-01    1.00000000E+00 

[MO]
Sym=X
Ene= -0.009135
Spin=Alpha
Occup=1
     1   -1.461360634689e-05
     2   -2.361402130903e-05
     3   -6.479751595839e-06
     4   -6.359255083487e-05
     5   -6.355895467632e-16
     6    4.617500699079e-05
     7    1.012067714349e-05
     8   -1.020758935255e-04
     9    7.154358003736e-16
    10    1.162576844676e-03
    11    2.355138747853e-04
    12    2.493732760151e-04
    13   -5.993700343443e-15
    14    6.077517210496e-03
    15   -1.220449577515e-03
    16    1.020210212914e-03
    17    2.017954360497e-14
    18    8.414801915466e-07
    19   -8.379953060336e-16
    20   -9.262597401801e-16
    21    4.085792699564e-05
    22   -2.011967811066e-06
    23   -3.045922972251e-05
    24   -1.808811092760e-04
    25   -1.233611661454e-03
    26   -4.523470751661e-03
    27    2.859163786756e-05
    28    1.358032467415e-05
    29    6.428798948586e-16
    30   -1.000393720852e-05
    31    1.862845566757e-06
    32   -3.557058055676e-04
    33   -1.707242386552e-03
    34    3.884838096904e-06
    35    1.854285724440e-05
    36   -9.421634980513e-16
    37   -1.997013227751e-05
    38   -9.846399593963e-05
    39    1.044107908079e-03
    40    3.537465632325e-03
    41   -3.164915732056e-06
    42    3.613132799795e-05
    43   -4.644166621367e-16
    44   -8.064651029097e-06
    45   -1.558831413319e-05
    46   -3.311630265273e-05
    47    2.084933270598e-05
    48    9.327821116487e-16
    49    3.956363071456e-06
    50   -3.133478927203e-05
    51    3.071679315663e-05
    52   -2.177686717855e-15
    53    9.916252750207e-04
    54   -2.150019954177e-04
    55    2.207098407481e-04
    56    1.802638904296e-15
    57    2.493028674492e-03
    58   -1.006063560328e-03
    59    1.193186239330e-03
    60    1.204370800853e-14
    61    3.353507381401e-05
    62    3.286739659461e-16
    63   -1.379290875166e-15
    64    2.557589167653e-05
    65    3.819461999316e-05
    66    1.234787241145e-04
    67    1.498797597595e-04
    68   -1.133876253817e-04
    69   -1.232264934625e-04
    70   -2.982164452819e-16
    71   -2.362152793790e-04
    72   -1.400626469687e-04
    73   -1.612966537141e-04
    74   -2.753994467726e-16
    75   -4.923499862010e-04
    76   -2.475281134130e-04
    77   -5.309395000725e-05
    78    2.339143676246e-15
    79   -1.280688344512e-03
    80    1.499016834780e-04
    81    1.762138183778e-04
    82   -3.561518964037e-15
    83    4.861900882487e-06
    84    3.426237524143e-16
    85   -1.982594643987e-16
    86   -1.106893219783e-05
    87   -3.737876570174e-06
    88   -1.765237868764e-05
    89    5.271561097220e-05
    90   -8.874173668735e-05
    91   -4.167928969762e-05
    92    1.080220815620e-15
    93   -2.255467107519e-04
    94   -3.875760518518e-04
    95   -2.061484502921e-04
    96   -1.571090759665e-15
    97    3.165718762496e-04
    98   -5.863422523463e-04
    99   -5.009790423815e-04
   100   -4.384255424016e-16
   101    1.067962929318e-02
   102    7.454619781542e-04
   103   -4.028040620903e-03
   104   -3.212324334129e-15
   105    7.239793588845e-05
   106   -9.439297091494e-16
   107    6.451894570386e-16
   108   -6.870794180017e-05
   109   -1.754137634420e-04
   110   -5.515391263211e-01
   111   -4.716167763386e-01
   112    1.570402759112e-03
   113    8.254088063888e-04
   114   -1.674802609486e-15
   115   -5.480455032762e-03
   116   -6.252195698805e-04
   117   -3.233511532621e-04
   118    2.486668089972e-15
   119    1.185599596409e-03
   120    1.712684914163e-04
   121    1.416289648009e-05
   122   -3.692738312441e-15
   123   -1.292888883126e-03
   124   -6.987736827389e-05
   125    2.192729061417e-04
   126    6.836238780857e-15
   127    1.052008379353e-04
   128   -8.775684489596e-16
   129   -9.684821463457e-16
   130    1.595473164426e-05
   131    3.737284061098e-05
   132    3.197899479986e-05
   133    5.323777526536e-05
   134    5.652679725136e-06
   135   -9.094498596703e-05
   136   -6.553385558446e-16
   137   -1.354644303396e-04
   138   -1.833931914075e-05
   139   -1.392904278408e-04
   140    4.103455539096e-16
   141   -8.664529215528e-04
   142    9.644583772517e-05
   143    6.260554782239e-05
   144   -1.139973950389e-16
   145   -9.204530708072e-04
   146    6.537214786516e-04
   147   -1.805246475267e-03
   148   -2.916703883648e-15
   149    1.605512617280e-05
   150   -6.083476274824e-16
   151    6.720303931484e-16
   152   -1.925784514584e-05
   153    3.675898026842e-06
   154   -2.147166121199e-05
   155   -3.699575881050e-05
   156   -9.305900908469e-05
   157   -9.767562460191e-05
   158    1.285132561981e-15
   159    1.077745923446e-04
   160   -1.473246558765e-04
   161   -1.439275127784e-04
   162   -2.838887465998e-15
   163    3.364564799602e-04
   164   -3.772866652659e-04
   165   -3.373454210909e-04
   166    7.361849513418e-15
   167   -1.004273663480e-03
   168   -1.440749669982e-03
   169   -5.970830341580e-04
   170   -1.868092845783e-14
   171    4.875643638500e-06
   172    1.710327969026e-15
   173   -1.283031567982e-16
   174   -1.039224902251e-05
   175   -1.641469408088e-05
   176    4.005907165652e-06
   177    7.540129750562e-06
   178    7.461470533183e-07
   179   -1.870759677890e-05
   180   -5.163330569754e-16
   181    8.594994349772e-06
   182    5.275234501155e-07
   183   -1.063323459496e-04
   184    7.510858310408e-16
   185   -1.025326454445e-03
   186    7.327888213866e-04
   187   -3.123059842256e-04
   188    4.567286385748e-15
   189   -1.226304633062e-02
   190    4.432416658651e-04
   191   -4.281646005939e-03
   192   -1.185338243047e-14
   193    1.154293898488e-05
   194   -9.427901240830e-16
   195   -9.583234012805e-16
   196    1.363309929871e-05
   197   -2.603778518906e-05
   198   -2.019197965105e-06
   199   -1.597853520018e-04
   200   -2.943421974212e-04
   201   -7.013309838574e-04
   202    1.688176583091e-05
   203   -1.229441207374e-05
   204    7.788627853677e-16
Sym=X
Ene= 0.009135
Spin=Alpha
Occup=0
     1   -2.233964697626e-06
     2   -2.296866560713e-06
     3   -7.366899655822e-06
     4    5.622529080371e-06
     5   -3.152477731931e-16
     6    1.782276030476e-06
     7    2.379486561079e-05
     8   -1.962074156391e-05
     9    1.599624165333e-15
    10   -1.629337423947e-04
    11    1.040408648458e-04
    12    1.008208368848e-04
    13   -1.445950843745e-15
    14    1.064569880704e-03
    15    7.458369706542e-04
    16    3.401416645477e-04
    17   -8.246079882870e-15
    18    7.374784076183e-07
    19    7.676230280945e-17
    20    1.235909521948e-16
    21    5.775250461953e-06
    22    7.637793269728e-06
    23   -5.595001988696e-07
    24    5.147642251231e-05
    25   -6.792642458140e-06
    26    2.349434909585e-04
    27    1.125186159545e-05
    28   -8.097782123272e-06
    29   -7.824952622015e-17
    30   -7.264634675044e-06
    31    4.936778499997e-05
    32    2.199584758249e-05
    33    1.045877718560e-04
    34   -1.444608562167e-06
    35    6.506896999868e-06
    36    6.898758153475e-16
    37    6.529796695458e-06
    38    6.354107406889e-05
    39    1.979796150592e-04
    40    3.578491234581e-04
    41    8.210004275704e-06
    42   -4.688380982874e-06
    43    8.734796966163e-16
    44    2.182512217190e-06
    45   -7.485904068839e-05
    46   -7.274327530386e-05
    47    3.921600272898e-05
    48   -9.155196311449e-16
    49    3.091345399848e-04
    50   -3.400045348177e-04
    51    1.781481021627e-04
    52    4.114779206338e-15
    53   -1.974986090876e-05
    54   -6.831296610335e-04
    55    2.260080437481e-04
    56   -4.644273263927e-15
    57    3.780205409137e-04
    58    6.626196113024e-04
    59   -3.277032488028e-04
    60   -6.657828650308e-15
    61   -4.546102907757e-05
    62   -8.680314695043e-16
    63   -6.183378968143e-16
    64    9.682005948287e-05
    65   -1.531534933568e-04
    66    5.514074756791e-01
    67    4.717391732633e-01
    68    1.675081883690e-03
    69   -6.103536377678e-04
    70    1.818183214346e-16
    71    5.591575124968e-03
    72   -7.209292065642e-04
    73    8.259890860131e-05
    74   -2.831634770224e-16
    75   -1.438331305724e-03
    76    1.642969839852e-04
    77    1.136875922888e-05
    78   -1.059202409880e-15
    79    1.330287710473e-03
    80   -2.486512072954e-05
    81   -8.969459086255e-05
    82    2.160645945799e-15
    83   -9.650752447448e-05
    84   -2.973082954205e-16
    85    2.716716666542e-16
    86    1.630786647673e-05
    87    7.858338429161e-05
    88    5.341107357525e-07
    89    2.705277124009e-06
    90   -3.547568685809e-06
    91    4.587466280207e-07
    92   -2.280945560485e-16
    93   -1.048121851603e-05
    94    3.056415493454e-05
    95   -1.249634409870e-05
    96    2.598402837626e-15
    97   -2.279875716849e-04
    98    7.174983749689e-05
    99   -6.040204128729e-05
   100   -3.637077716593e-15
   101    6.418373688444e-04
   102    2.111210885599e-04
   103   -6.741831100701e-04
   104   -1.772998358009e-14
   105    2.919010722179e-06
   106   -1.678153507079e-17
   107    3.532748095785e-17
   108   -1.060833805738e-05
   109    2.073073022930e-06
   110    8.487691996996e-05
   111    8.270482461980e-05
   112   -2.352750274791e-06
   113   -2.437434637354e-07
   114    1.504885803729e-15
   115   -2.291428375120e-06
   116   -1.771948653847e-06
   117    3.161937671465e-06
   118   -1.244667894852e-15
   119    3.683389562141e-05
   120   -1.919151881714e-05
   121   -7.893237609395e-06
   122   -1.753105484347e-15
   123   -8.993839078434e-05
   124    3.217878909627e-05
   125    7.021972574895e-05
   126    7.038416000095e-15
   127    4.048753745922e-07
   128    4.797518816633e-16
   129    1.087129140733e-15
   130    7.632030222881e-07
   131    6.470562189035e-07
   132   -1.330297696013e-06
   133    4.315188803172e-07
   134    2.325877249832e-06
   135   -5.766296345924e-06
   136    4.859102463602e-16
   137   -2.768407393285e-05
   138   -2.571658036616e-05
   139   -7.479123337742e-08
   140    2.580106683361e-17
   141    3.798451988064e-04
   142    3.343710898890e-08
   143   -3.090148647544e-04
   144   -2.154498550127e-15
   145    1.984763339128e-04
   146    3.689855484123e-04
   147   -2.183411695648e-04
   148    1.222070655968e-14
   149   -3.281712662251e-06
   150    2.235777046219e-16
   151   -7.178192703200e-16
   152    1.722691528758e-05
   153    1.161667070636e-05
   154    1.552178509956e-06
   155    3.631361092646e-06
   156    3.358545187011e-06
   157   -1.748295221148e-05
   158   -6.575720648610e-16
   159   -3.052885048415e-05
   160   -1.910023579476e-05
   161    1.205290426810e-05
   162    8.468023209585e-17
   163    2.221406992632e-04
   164    2.267788694196e-04
   165    1.411409547639e-05
   166   -8.808241854705e-16
   167   -1.418855290429e-04
   168    2.004812085824e-04
   169   -5.181329720727e-04
   170    7.704760833672e-15
   171   -1.063735773905e-05
   172   -2.488697818327e-16
   173    2.717687903543e-16
   174   -1.179530571107e-05
   175   -1.526451100725e-05
   176    8.776617394787e-08
   177   -4.815135608654e-07
   178    2.578692980318e-07
   179   -1.565008635136e-07
   180   -1.367985310017e-15
   181    1.321303738521e-05
   182   -1.171389358504e-06
   183    7.618219479030e-06
   184    5.035458137829e-16
   185   -1.312107931763e-04
   186    9.514190147982e-05
   187   -3.294245088090e-05
   188   -7.738964681517e-16
   189   -3.347570790986e-03
   190    4.894173919266e-04
   191   -2.865060766316e-04
   192    1.517449523544e-14
   193    5.718252243089e-06
   194   -2.693110686621e-17
   195   -3.657204732568e-16
   196    1.161879948301e-08
   197   -4.264658723156e-06
   198    1.279255518691e-06
   199   -1.756753365129e-05
   200   -2.834294218744e-05
   201   -1.311974427806e-04
   202    8.397514311812e-07
   203   -7.439763503895e-07
   204    8.145138379112e-16
[5D]
