[Molden Format]
[Atoms] (Angs)
  C      1    6     -0.00714236     -1.70213747     -0.00000000
  H      2    1     -2.06882847     -1.44022412      0.00000000
  H      3    1     -0.12337987     -2.77567521      0.00000000
  H      4    1      0.04651892      1.98813947     -0.00000000
  C      5    6     -1.21953563      0.40211669      0.00000000
  O      6    8     -2.25921553      1.03043814      0.00000000
  C      7    6      1.28797806      0.34644937     -0.00000000
  O      8    8      2.31273661      1.00537216     -0.00000000
  N      9    7      0.03446295      0.97739857     -0.00000000
  N     10    7     -1.17287765     -0.98229824      0.00000000
  C     11    6      1.20107039     -1.10433419     -0.00000000
  H     12    1      2.11220096     -1.67699125     -0.00000000
[GTO]
1    0
S    6    1.000000
   4.56324000E+03    1.96665000E-03 
   6.82024000E+02    1.52306000E-02 
   1.54973000E+02    7.61269000E-02 
   4.44553000E+01    2.60801000E-01 
   1.30290000E+01    6.16462000E-01 
   1.82773000E+00    2.21006000E-01 
SP   3    1.000000
   2.09642000E+01    1.14660000E-01   4.02487000E-02 
   4.80331000E+00    9.19999000E-01   2.37594000E-01 
   1.45933000E+00   -3.03068000E-03   8.15854000E-01 
SP   1    1.000000
   4.83456000E-01    1.00000000E+00   1.00000000E+00 
SP   1    1.000000
   1.45585000E-01    1.00000000E+00   1.00000000E+00 
SP   1    1.000000
   4.38000000E-02    1.00000000E+00   1.00000000E+00 
D    1    1.000000
   6.26000000E-01    1.00000000E+00 

2    0
S    3    1.000000
   3.38650000E+01    2.54938000E-02 
   5.09479000E+00    1.90373000E-01 
   1.15879000E+00    8.52161000E-01 
S    1    1.000000
   3.25840000E-01    1.00000000E+00 
S    1    1.000000
   1.02741000E-01    1.00000000E+00 
S    1    1.000000
   3.60000000E-02    1.00000000E+00 
P    1    1.000000
   7.50000000E-01    1.00000000E+00 

3    0
S    3    1.000000
   3.38650000E+01    2.54938000E-02 
   5.09479000E+00    1.90373000E-01 
   1.15879000E+00    8.52161000E-01 
S    1    1.000000
   3.25840000E-01    1.00000000E+00 
S    1    1.000000
   1.02741000E-01    1.00000000E+00 
S    1    1.000000
   3.60000000E-02    1.00000000E+00 
P    1    1.000000
   7.50000000E-01    1.00000000E+00 

4    0
S    3    1.000000
   3.38650000E+01    2.54938000E-02 
   5.09479000E+00    1.90373000E-01 
   1.15879000E+00    8.52161000E-01 
S    1    1.000000
   3.25840000E-01    1.00000000E+00 
S    1    1.000000
   1.02741000E-01    1.00000000E+00 
S    1    1.000000
   3.60000000E-02    1.00000000E+00 
P    1    1.000000
   7.50000000E-01    1.00000000E+00 

5    0
S    6    1.000000
   4.56324000E+03    1.96665000E-03 
   6.82024000E+02    1.52306000E-02 
   1.54973000E+02    7.61269000E-02 
   4.44553000E+01    2.60801000E-01 
   1.30290000E+01    6.16462000E-01 
   1.82773000E+00    2.21006000E-01 
SP   3    1.000000
   2.09642000E+01    1.14660000E-01   4.02487000E-02 
   4.80331000E+00    9.19999000E-01   2.37594000E-01 
   1.45933000E+00   -3.03068000E-03   8.15854000E-01 
SP   1    1.000000
   4.83456000E-01    1.00000000E+00   1.00000000E+00 
SP   1    1.000000
   1.45585000E-01    1.00000000E+00   1.00000000E+00 
SP   1    1.000000
   4.38000000E-02    1.00000000E+00   1.00000000E+00 
D    1    1.000000
   6.26000000E-01    1.00000000E+00 

6    0
S    6    1.000000
   8.58850000E+03    1.89515000E-03 
   1.29723000E+03    1.43859000E-02 
   2.99296000E+02    7.07320000E-02 
   8.73771000E+01    2.40001000E-01 
   2.56789000E+01    5.94797000E-01 
   3.74004000E+00    2.80802000E-01 
SP   3    1.000000
   4.21175000E+01    1.13889000E-01   3.65114000E-02 
   9.62837000E+00    9.20811000E-01   2.37153000E-01 
   2.85332000E+00   -3.27447000E-03   8.19702000E-01 
SP   1    1.000000
   9.05661000E-01    1.00000000E+00   1.00000000E+00 
SP   1    1.000000
   2.55611000E-01    1.00000000E+00   1.00000000E+00 
SP   1    1.000000
   8.45000000E-02    1.00000000E+00   1.00000000E+00 
D    1    1.000000
   1.29200000E+00    1.00000000E+00 

7    0
S    6    1.000000
   4.56324000E+03    1.96665000E-03 
   6.82024000E+02    1.52306000E-02 
   1.54973000E+02    7.61269000E-02 
   4.44553000E+01    2.60801000E-01 
   1.30290000E+01    6.16462000E-01 
   1.82773000E+00    2.21006000E-01 
SP   3    1.000000
   2.09642000E+01    1.14660000E-01   4.02487000E-02 
   4.80331000E+00    9.19999000E-01   2.37594000E-01 
   1.45933000E+00   -3.03068000E-03   8.15854000E-01 
SP   1    1.000000
   4.83456000E-01    1.00000000E+00   1.00000000E+00 
SP   1    1.000000
   1.45585000E-01    1.00000000E+00   1.00000000E+00 
SP   1    1.000000
   4.38000000E-02    1.00000000E+00   1.00000000E+00 
D    1    1.000000
   6.26000000E-01    1.00000000E+00 

8    0
S    6    1.000000
   8.58850000E+03    1.89515000E-03 
   1.29723000E+03    1.43859000E-02 
   2.99296000E+02    7.07320000E-02 
   8.73771000E+01    2.40001000E-01 
   2.56789000E+01    5.94797000E-01 
   3.74004000E+00    2.80802000E-01 
SP   3    1.000000
   4.21175000E+01    1.13889000E-01   3.65114000E-02 
   9.62837000E+00    9.20811000E-01   2.37153000E-01 
   2.85332000E+00   -3.27447000E-03   8.19702000E-01 
SP   1    1.000000
   9.05661000E-01    1.00000000E+00   1.00000000E+00 
SP   1    1.000000
   2.55611000E-01    1.00000000E+00   1.00000000E+00 
SP   1    1.000000
   8.45000000E-02    1.00000000E+00   1.00000000E+00 
D    1    1.000000
   1.29200000E+00    1.00000000E+00 

9    0
S    6    1.000000
   6.29348000E+03    1.96979000E-03 
   9.49044000E+02    1.49613000E-02 
   2.18776000E+02    7.35006000E-02 
   6.36916000E+01    2.48937000E-01 
   1.88282000E+01    6.02460000E-01 
   2.72023000E+00    2.56202000E-01 
SP   3    1.000000
   3.06331000E+01    1.11906000E-01   3.83119000E-02 
   7.02614000E+00    9.21666000E-01   2.37403000E-01 
   2.11205000E+00   -2.56919000E-03   8.17592000E-01 
SP   1    1.000000
   6.84009000E-01    1.00000000E+00   1.00000000E+00 
SP   1    1.000000
   2.00878000E-01    1.00000000E+00   1.00000000E+00 
SP   1    1.000000
   6.39000000E-02    1.00000000E+00   1.00000000E+00 
D    1    1.000000
   9.13000000E-01    1.00000000E+00 

10    0
S    6    1.000000
   6.29348000E+03    1.96979000E-03 
   9.49044000E+02    1.49613000E-02 
   2.18776000E+02    7.35006000E-02 
   6.36916000E+01    2.48937000E-01 
   1.88282000E+01    6.02460000E-01 
   2.72023000E+00    2.56202000E-01 
SP   3    1.000000
   3.06331000E+01    1.11906000E-01   3.83119000E-02 
   7.02614000E+00    9.21666000E-01   2.37403000E-01 
   2.11205000E+00   -2.56919000E-03   8.17592000E-01 
SP   1    1.000000
   6.84009000E-01    1.00000000E+00   1.00000000E+00 
SP   1    1.000000
   2.00878000E-01    1.00000000E+00   1.00000000E+00 
SP   1    1.000000
   6.39000000E-02    1.00000000E+00   1.00000000E+00 
D    1    1.000000
   9.13000000E-01    1.00000000E+00 

11    0
S    6    1.000000
   4.56324000E+03    1.96665000E-03 
   6.82024000E+02    1.52306000E-02 
   1.54973000E+02    7.61269000E-02 
   4.44553000E+01    2.60801000E-01 
   1.30290000E+01    6.16462000E-01 
   1.82773000E+00    2.21006000E-01 
SP   3    1.000000
   2.09642000E+01    1.14660000E-01   4.02487000E-02 
   4.80331000E+00    9.19999000E-01   2.37594000E-01 
   1.45933000E+00   -3.03068000E-03   8.15854000E-01 
SP   1    1.000000
   4.83456000E-01    1.00000000E+00   1.00000000E+00 
SP   1    1.000000
   1.45585000E-01    1.00000000E+00   1.00000000E+00 
SP   1    1.000000
   4.38000000E-02    1.00000000E+00   1.00000000E+00 
D    1    1.000000
   6.26000000E-01    1.00000000E+00 

12    0
S    3    1.000000
   3.38650000E+01    2.54938000E-02 
   5.09479000E+00    1.90373000E-01 
   1.15879000E+00    8.52161000E-01 
S    1    1.000000
   3.25840000E-01    1.00000000E+00 
S    1    1.000000
   1.02741000E-01    1.00000000E+00 
S    1    1.000000
   3.60000000E-02    1.00000000E+00 
P    1    1.000000
   7.50000000E-01    1.00000000E+00 

[MO]
Sym=X
Ene= -0.483284
Spin=Alpha
Occup=1
     1   -1.387527857789e-14
     2   -2.345875073739e-14
     3    1.456235772953e-14
     4    8.180806237653e-15
     5    2.812901470813e-02
     6    1.131575223617e-13
     7   -1.084366220809e-13
     8    5.671005411176e-14
     9    4.838718816136e-02
    10    5.142398029455e-13
    11    1.347331287418e-13
    12    6.313912622394e-13
    13    4.386968880555e-02
    14    2.820239737330e-11
    15    1.021605135265e-11
    16    3.373360170364e-12
    17    3.349098180948e-02
    18   -1.187386441601e-14
    19   -2.610283737504e-02
    20    1.749437636368e-03
    21   -1.526969107502e-14
    22    5.095336418485e-15
    23    1.321617929689e-14
    24   -3.005292696738e-13
    25   -2.669638612414e-13
    26   -7.216876757122e-14
    27   -1.963970489139e-14
    28   -5.721156535870e-15
    29    1.199294213090e-02
    30    2.513918882636e-14
    31    1.175950957511e-13
    32    1.007040226276e-12
    33    3.964598159818e-12
    34   -7.934577715311e-15
    35    1.179652319960e-14
    36    2.945689331405e-03
    37    1.041270956336e-14
    38    1.145256741731e-13
    39    1.547689542767e-12
    40   -1.291203422464e-12
    41    8.984057115284e-15
    42   -2.075269414258e-15
    43    1.252857888189e-02
    44    2.551516453753e-17
    45    2.169152540643e-16
    46    1.001246155140e-14
    47   -2.868369697604e-15
    48   -2.472088676589e-01
    49   -5.419639821304e-14
    50   -1.468974537437e-14
    51    1.383173890638e-14
    52   -4.273963311567e-01
    53    2.012239794998e-13
    54    1.345436087373e-12
    55    4.561623059735e-13
    56   -6.448745726290e-01
    57    2.257520965698e-12
    58    6.690744755883e-13
    59   -9.015225937549e-13
    60   -2.033038752686e-01
    61    1.101936833093e-14
    62    5.446183355603e-03
    63    1.245968596156e-03
    64    1.383471296477e-14
    65    1.882272714879e-15
    66    2.497977884552e-15
    67    2.405677660989e-15
    68   -2.951589400828e-15
    69    1.039326912841e-14
    70    1.999991223183e-01
    71   -1.878873940727e-14
    72   -1.136876207821e-14
    73    2.353013184966e-14
    74    2.707533469234e-01
    75    1.188591514147e-13
    76   -3.800000964397e-15
    77   -1.345004991228e-13
    78    2.945638254746e-01
    79    1.998678397278e-12
    80    5.456039105718e-13
    81   -5.123232721825e-13
    82    1.148657259927e-01
    83    3.529648198431e-15
    84   -1.136794253743e-02
    85    6.918033247344e-03
    86   -1.329699343561e-15
    87    3.417727786622e-15
    88    6.003813952111e-15
    89    1.345284489949e-14
    90    6.478729833249e-15
    91    9.802922314619e-15
    92    2.315664271965e-02
    93   -5.188414450701e-14
    94    4.683055069746e-14
    95    2.462070000032e-15
    96    4.168666750504e-02
    97    1.547189616823e-13
    98    1.072760955105e-13
    99   -1.414385078932e-14
   100    3.168208153123e-02
   101    2.786526602939e-12
   102   -9.122966109180e-12
   103    2.645085236114e-12
   104    2.656356879703e-02
   105    9.910001326050e-15
   106   -2.040823185335e-02
   107    1.580198661063e-02
   108    8.464305538081e-15
   109   -1.500608571854e-14
   110    1.493370440880e-15
   111    1.874116186271e-15
   112    6.750637740133e-15
   113   -1.946127774312e-14
   114   -2.564901146502e-02
   115   -1.726354442876e-14
   116    1.340615106580e-14
   117   -3.496711718156e-14
   118   -3.925740509953e-02
   119   -2.248605186092e-14
   120   -7.143541162892e-14
   121    5.963598612136e-14
   122   -4.821217773248e-02
   123    6.118932931660e-13
   124    7.143694169789e-13
   125    1.003427429614e-14
   126   -2.608849949262e-02
   127   -1.716147926467e-15
   128   -7.262868283231e-04
   129    1.099877802166e-03
   130   -2.628131186574e-15
   131    1.795651074565e-15
   132    4.982508187772e-15
   133    7.168860561084e-15
   134    2.170184458820e-14
   135    7.807794226493e-15
   136    9.612482072558e-02
   137    2.360048571149e-14
   138    2.122955496527e-14
   139    9.438822470329e-14
   140    1.473773668856e-01
   141   -6.731331875921e-13
   142    5.436126522816e-13
   143   -4.070533438847e-13
   144    2.769450626282e-01
   145   -8.642373964280e-12
   146   -4.205030207977e-14
   147   -9.758549086407e-13
   148    1.749528012844e-01
   149    6.127073757816e-15
   150    2.274884906807e-02
   151    7.587252105382e-03
   152    2.863955551079e-15
   153    3.294402814019e-15
   154    1.648196060227e-14
   155    2.770446119593e-14
   156    9.206043401822e-15
   157    7.840902903198e-15
   158    8.022496959616e-02
   159   -1.114664361791e-13
   160    8.322315691881e-14
   161    1.066748143796e-14
   162    1.222610450566e-01
   163   -5.598221485435e-14
   164   -8.835989183164e-13
   165    1.221890310674e-13
   166    2.388280183568e-01
   167    1.413670916505e-12
   168    1.276571326791e-13
   169   -2.525291382753e-12
   170    1.736579437904e-01
   171   -6.479819382202e-15
   172    4.175066819768e-03
   173   -2.542612215634e-02
   174    1.134106334452e-14
   175    1.240278784993e-14
   176   -1.062272925069e-14
   177   -1.378636674505e-14
   178    9.783078659000e-15
   179   -7.961923684285e-15
   180   -6.168446602165e-02
   181   -5.871136374388e-14
   182    4.783456517827e-14
   183    4.123685754982e-14
   184   -9.823628179584e-02
   185    6.742042027557e-13
   186    2.237428730538e-13
   187   -4.887544534808e-13
   188   -1.721225217441e-01
   189   -3.479574757024e-11
   190    1.424369837968e-11
   191    8.605582050559e-12
   192   -1.033235298693e-01
   193   -2.256492793651e-14
   194   -2.563228964525e-03
   195    5.057000955751e-04
   196    2.961709409671e-14
   197   -1.101276607802e-15
   198    3.392776815036e-14
   199   -1.924375824659e-13
   200    6.953535435255e-13
   201    3.360137672442e-13
   202    2.401819937845e-14
   203    8.529150821405e-16
   204   -6.395484192499e-03
Sym=X
Ene= 0.483284
Spin=Alpha
Occup=0
     1   -5.049967661026e-15
     2   -8.611770518136e-15
     3    6.344702453396e-15
     4   -1.850768265646e-14
     5   -9.842255801472e-03
     6    3.832168894558e-14
     7   -2.541335685530e-14
     8   -6.808772943234e-15
     9   -3.330473598151e-02
    10    3.701583488910e-13
    11    1.779101350163e-14
    12    3.970794149670e-14
    13    5.332350218774e-02
    14   -6.078035448694e-12
    15   -4.128208914119e-13
    16   -2.606991372577e-12
    17   -2.924405435389e-01
    18    4.853882970823e-15
    19   -1.537485236772e-03
    20    5.663525337016e-03
    21    2.586988797889e-15
    22   -5.268208247297e-15
    23   -7.601624427590e-15
    24   -1.515253330210e-13
    25    4.195331242424e-13
    26    2.509950252771e-12
    27   -8.005672784473e-16
    28    3.426152912601e-15
    29   -5.850888541316e-03
    30   -1.116518849521e-15
    31   -5.233678479643e-14
    32    1.742101883047e-13
    33   -1.411057730440e-12
    34   -3.300219036689e-15
    35    7.879235450818e-15
    36   -6.289207259444e-03
    37   -1.369360879244e-15
    38   -3.926843684254e-15
    39    5.189232299640e-13
    40   -8.775698724244e-13
    41    3.729298001971e-15
    42   -2.922493028102e-16
    43    7.910842882091e-03
    44   -1.054130640115e-15
    45   -4.784032364456e-15
    46    8.947269981961e-15
    47    3.735305561106e-15
    48   -6.284409172303e-03
    49    4.010681384335e-14
    50   -8.120493873675e-15
    51   -1.921011152393e-14
    52   -2.661376387488e-02
    53   -4.977839738096e-13
    54    5.776195998773e-13
    55    2.481818030038e-13
    56    4.543905924268e-02
    57    1.033034784517e-12
    58    2.338976316772e-12
    59    1.105620106311e-12
    60   -5.006747585874e-01
    61    8.459743798063e-15
    62    1.344297182716e-03
    63   -1.466448235457e-03
    64    1.324911492697e-15
    65    4.485830576922e-15
    66   -4.041666197652e-16
    67   -5.161487006763e-16
    68   -9.408419459824e-15
    69    5.753725660420e-15
    70    2.940783420501e-02
    71    3.908660077782e-15
    72   -2.218084014154e-14
    73    8.159932452152e-15
    74    4.062818241686e-02
    75    2.338118811807e-14
    76    5.416371230966e-14
    77   -3.814437247794e-14
    78    4.402522295383e-02
    79    1.560741460367e-12
    80    1.359048262852e-13
    81   -5.203646312355e-13
    82   -7.124541609930e-02
    83    1.297856647772e-15
    84    2.676388890188e-03
    85    1.149271098158e-03
    86    6.989993117606e-16
    87    1.591534876192e-15
    88   -2.812800475317e-16
    89    3.030008284295e-15
    90    6.321626467088e-16
    91    1.875346389724e-15
    92   -7.516454112426e-02
    93   -1.817955212323e-14
    94   -1.665776541168e-14
    95   -2.455416478652e-14
    96   -9.486494341317e-02
    97    1.868195071110e-13
    98   -2.346549482299e-13
    99    1.509812088706e-13
   100   -3.278970988678e-01
   101   -3.407877446393e-12
   102   -2.984727282273e-12
   103    1.423632879469e-12
   104    1.801180862945e+00
   105   -2.899770238764e-15
   106    2.941650861247e-03
   107   -2.356036668481e-03
   108   -1.444080882130e-15
   109   -5.170505508359e-15
   110   -3.369019849463e-15
   111   -5.497446240858e-15
   112    2.856918970538e-15
   113   -5.054304573987e-15
   114   -5.833934682274e-03
   115    1.864079468058e-14
   116    6.858563722541e-15
   117    5.017821801880e-15
   118   -2.752245636278e-02
   119    2.691479827925e-14
   120   -6.251209238806e-14
   121   -7.125644638513e-14
   122    8.944886031702e-02
   123    7.971696737211e-13
   124    3.589314854967e-13
   125    1.780379736503e-13
   126   -4.576656658056e-01
   127   -1.798932571012e-15
   128    5.078889832784e-03
   129    3.503709382553e-03
   130   -7.214023449561e-16
   131    2.851943077615e-15
   132   -1.645109724860e-15
   133   -3.098370568111e-15
   134    1.227448019826e-14
   135    1.279285237038e-14
   136   -1.500587569355e-02
   137    1.287774551526e-14
   138    2.077497832842e-14
   139    2.444672401762e-14
   140   -2.392138971330e-02
   141   -1.461981215509e-13
   142    4.855634954315e-14
   143    7.573405142607e-14
   144   -3.145947405359e-02
   145   -5.746722786569e-12
   146    4.689065839111e-13
   147   -6.433112127031e-15
   148    1.482799436768e-01
   149   -1.669141075556e-16
   150   -2.964161298224e-03
   151    7.230679923029e-03
   152    3.674631871347e-15
   153    1.331585777575e-15
   154   -1.100632078005e-15
   155    8.144012156829e-16
   156   -9.627536290828e-15
   157   -7.581472130836e-15
   158    4.252790876371e-02
   159    9.851105021657e-15
   160    7.080334588310e-15
   161   -9.641388220688e-15
   162    5.933036670376e-02
   163   -1.033996732716e-13
   164   -3.507354898206e-13
   165    4.895501565019e-14
   166    1.383877267105e-01
   167    2.526424664365e-12
   168    1.388441388291e-12
   169    6.988552000256e-13
   170   -3.934799467851e-01
   171    4.368202530458e-15
   172    3.981842899985e-03
   173    3.113262117418e-03
   174   -2.200985318519e-15
   175    3.122317860457e-16
   176   -2.027519166829e-15
   177   -2.733933518897e-15
   178    1.123205404468e-14
   179    4.838521331131e-15
   180   -1.376807175233e-02
   181   -1.018324775954e-15
   182   -5.330679680499e-15
   183    8.956393853526e-15
   184   -3.720998368181e-03
   185    1.464061963585e-13
   186    4.750260536782e-13
   187   -8.929917932006e-14
   188   -8.707925452676e-02
   189    7.938407962317e-12
   190    9.043288247048e-13
   191    1.942205341945e-12
   192   -2.480913079860e-02
   193    6.443431512290e-16
   194    7.569044739592e-03
   195   -4.938556791952e-03
   196    5.736751999449e-15
   197    3.209338718670e-15
   198   -3.813648663899e-15
   199   -8.546250497315e-14
   200   -7.307679476237e-13
   201    8.863060733054e-13
   202    8.033018527878e-15
   203   -2.050826722691e-15
   204    5.056779395524e-03
[5D]
