[Molden Format]
[Atoms] (Angs)
  C      1    6     -0.00714236     -1.70213747     -0.00000000
  H      2    1     -2.06882847     -1.44022412      0.00000000
  H      3    1     -0.12337987     -2.77567521      0.00000000
  H      4    1      0.04651892      1.98813947     -0.00000000
  C      5    6     -1.21953563      0.40211669      0.00000000
  O      6    8     -2.25921553      1.03043814      0.00000000
  C      7    6      1.28797806      0.34644937     -0.00000000
  O      8    8      2.31273661      1.00537216     -0.00000000
  N      9    7      0.03446295      0.97739857     -0.00000000
  N     10    7     -1.17287765     -0.98229824      0.00000000
  C     11    6      1.20107039     -1.10433419     -0.00000000
  H     12    1      2.11220096     -1.67699125     -0.00000000
[GTO]
1    0
S    6    1.000000
   4.56324000E+03    1.96665000E-03 
   6.82024000E+02    1.52306000E-02 
   1.54973000E+02    7.61269000E-02 
   4.44553000E+01    2.60801000E-01 
   1.30290000E+01    6.16462000E-01 
   1.82773000E+00    2.21006000E-01 
SP   3    1.000000
   2.09642000E+01    1.14660000E-01   4.02487000E-02 
   4.80331000E+00    9.19999000E-01   2.37594000E-01 
   1.45933000E+00   -3.03068000E-03   8.15854000E-01 
SP   1    1.000000
   4.83456000E-01    1.00000000E+00   1.00000000E+00 
SP   1    1.000000
   1.45585000E-01    1.00000000E+00   1.00000000E+00 
SP   1    1.000000
   4.38000000E-02    1.00000000E+00   1.00000000E+00 
D    1    1.000000
   6.26000000E-01    1.00000000E+00 

2    0
S    3    1.000000
   3.38650000E+01    2.54938000E-02 
   5.09479000E+00    1.90373000E-01 
   1.15879000E+00    8.52161000E-01 
S    1    1.000000
   3.25840000E-01    1.00000000E+00 
S    1    1.000000
   1.02741000E-01    1.00000000E+00 
S    1    1.000000
   3.60000000E-02    1.00000000E+00 
P    1    1.000000
   7.50000000E-01    1.00000000E+00 

3    0
S    3    1.000000
   3.38650000E+01    2.54938000E-02 
   5.09479000E+00    1.90373000E-01 
   1.15879000E+00    8.52161000E-01 
S    1    1.000000
   3.25840000E-01    1.00000000E+00 
S    1    1.000000
   1.02741000E-01    1.00000000E+00 
S    1    1.000000
   3.60000000E-02    1.00000000E+00 
P    1    1.000000
   7.50000000E-01    1.00000000E+00 

4    0
S    3    1.000000
   3.38650000E+01    2.54938000E-02 
   5.09479000E+00    1.90373000E-01 
   1.15879000E+00    8.52161000E-01 
S    1    1.000000
   3.25840000E-01    1.00000000E+00 
S    1    1.000000
   1.02741000E-01    1.00000000E+00 
S    1    1.000000
   3.60000000E-02    1.00000000E+00 
P    1    1.000000
   7.50000000E-01    1.00000000E+00 

5    0
S    6    1.000000
   4.56324000E+03    1.96665000E-03 
   6.82024000E+02    1.52306000E-02 
   1.54973000E+02    7.61269000E-02 
   4.44553000E+01    2.60801000E-01 
   1.30290000E+01    6.16462000E-01 
   1.82773000E+00    2.21006000E-01 
SP   3    1.000000
   2.09642000E+01    1.14660000E-01   4.02487000E-02 
   4.80331000E+00    9.19999000E-01   2.37594000E-01 
   1.45933000E+00   -3.03068000E-03   8.15854000E-01 
SP   1    1.000000
   4.83456000E-01    1.00000000E+00   1.00000000E+00 
SP   1    1.000000
   1.45585000E-01    1.00000000E+00   1.00000000E+00 
SP   1    1.000000
   4.38000000E-02    1.00000000E+00   1.00000000E+00 
D    1    1.000000
   6.26000000E-01    1.00000000E+00 

6    0
S    6    1.000000
   8.58850000E+03    1.89515000E-03 
   1.29723000E+03    1.43859000E-02 
   2.99296000E+02    7.07320000E-02 
   8.73771000E+01    2.40001000E-01 
   2.56789000E+01    5.94797000E-01 
   3.74004000E+00    2.80802000E-01 
SP   3    1.000000
   4.21175000E+01    1.13889000E-01   3.65114000E-02 
   9.62837000E+00    9.20811000E-01   2.37153000E-01 
   2.85332000E+00   -3.27447000E-03   8.19702000E-01 
SP   1    1.000000
   9.05661000E-01    1.00000000E+00   1.00000000E+00 
SP   1    1.000000
   2.55611000E-01    1.00000000E+00   1.00000000E+00 
SP   1    1.000000
   8.45000000E-02    1.00000000E+00   1.00000000E+00 
D    1    1.000000
   1.29200000E+00    1.00000000E+00 

7    0
S    6    1.000000
   4.56324000E+03    1.96665000E-03 
   6.82024000E+02    1.52306000E-02 
   1.54973000E+02    7.61269000E-02 
   4.44553000E+01    2.60801000E-01 
   1.30290000E+01    6.16462000E-01 
   1.82773000E+00    2.21006000E-01 
SP   3    1.000000
   2.09642000E+01    1.14660000E-01   4.02487000E-02 
   4.80331000E+00    9.19999000E-01   2.37594000E-01 
   1.45933000E+00   -3.03068000E-03   8.15854000E-01 
SP   1    1.000000
   4.83456000E-01    1.00000000E+00   1.00000000E+00 
SP   1    1.000000
   1.45585000E-01    1.00000000E+00   1.00000000E+00 
SP   1    1.000000
   4.38000000E-02    1.00000000E+00   1.00000000E+00 
D    1    1.000000
   6.26000000E-01    1.00000000E+00 

8    0
S    6    1.000000
   8.58850000E+03    1.89515000E-03 
   1.29723000E+03    1.43859000E-02 
   2.99296000E+02    7.07320000E-02 
   8.73771000E+01    2.40001000E-01 
   2.56789000E+01    5.94797000E-01 
   3.74004000E+00    2.80802000E-01 
SP   3    1.000000
   4.21175000E+01    1.13889000E-01   3.65114000E-02 
   9.62837000E+00    9.20811000E-01   2.37153000E-01 
   2.85332000E+00   -3.27447000E-03   8.19702000E-01 
SP   1    1.000000
   9.05661000E-01    1.00000000E+00   1.00000000E+00 
SP   1    1.000000
   2.55611000E-01    1.00000000E+00   1.00000000E+00 
SP   1    1.000000
   8.45000000E-02    1.00000000E+00   1.00000000E+00 
D    1    1.000000
   1.29200000E+00    1.00000000E+00 

9    0
S    6    1.000000
   6.29348000E+03    1.96979000E-03 
   9.49044000E+02    1.49613000E-02 
   2.18776000E+02    7.35006000E-02 
   6.36916000E+01    2.48937000E-01 
   1.88282000E+01    6.02460000E-01 
   2.72023000E+00    2.56202000E-01 
SP   3    1.000000
   3.06331000E+01    1.11906000E-01   3.83119000E-02 
   7.02614000E+00    9.21666000E-01   2.37403000E-01 
   2.11205000E+00   -2.56919000E-03   8.17592000E-01 
SP   1    1.000000
   6.84009000E-01    1.00000000E+00   1.00000000E+00 
SP   1    1.000000
   2.00878000E-01    1.00000000E+00   1.00000000E+00 
SP   1    1.000000
   6.39000000E-02    1.00000000E+00   1.00000000E+00 
D    1    1.000000
   9.13000000E-01    1.00000000E+00 

10    0
S    6    1.000000
   6.29348000E+03    1.96979000E-03 
   9.49044000E+02    1.49613000E-02 
   2.18776000E+02    7.35006000E-02 
   6.36916000E+01    2.48937000E-01 
   1.88282000E+01    6.02460000E-01 
   2.72023000E+00    2.56202000E-01 
SP   3    1.000000
   3.06331000E+01    1.11906000E-01   3.83119000E-02 
   7.02614000E+00    9.21666000E-01   2.37403000E-01 
   2.11205000E+00   -2.56919000E-03   8.17592000E-01 
SP   1    1.000000
   6.84009000E-01    1.00000000E+00   1.00000000E+00 
SP   1    1.000000
   2.00878000E-01    1.00000000E+00   1.00000000E+00 
SP   1    1.000000
   6.39000000E-02    1.00000000E+00   1.00000000E+00 
D    1    1.000000
   9.13000000E-01    1.00000000E+00 

11    0
S    6    1.000000
   4.56324000E+03    1.96665000E-03 
   6.82024000E+02    1.52306000E-02 
   1.54973000E+02    7.61269000E-02 
   4.44553000E+01    2.60801000E-01 
   1.30290000E+01    6.16462000E-01 
   1.82773000E+00    2.21006000E-01 
SP   3    1.000000
   2.09642000E+01    1.14660000E-01   4.02487000E-02 
   4.80331000E+00    9.19999000E-01   2.37594000E-01 
   1.45933000E+00   -3.03068000E-03   8.15854000E-01 
SP   1    1.000000
   4.83456000E-01    1.00000000E+00   1.00000000E+00 
SP   1    1.000000
   1.45585000E-01    1.00000000E+00   1.00000000E+00 
SP   1    1.000000
   4.38000000E-02    1.00000000E+00   1.00000000E+00 
D    1    1.000000
   6.26000000E-01    1.00000000E+00 

12    0
S    3    1.000000
   3.38650000E+01    2.54938000E-02 
   5.09479000E+00    1.90373000E-01 
   1.15879000E+00    8.52161000E-01 
S    1    1.000000
   3.25840000E-01    1.00000000E+00 
S    1    1.000000
   1.02741000E-01    1.00000000E+00 
S    1    1.000000
   3.60000000E-02    1.00000000E+00 
P    1    1.000000
   7.50000000E-01    1.00000000E+00 

[MO]
Sym=X
Ene= -0.002448
Spin=Alpha
Occup=1
     1    9.473793645499e-07
     2    1.335053362545e-05
     3   -1.705584598488e-05
     4    1.368071259107e-05
     5   -2.331837545974e-16
     6   -9.798277167747e-05
     7    1.733765790234e-04
     8   -1.078666833328e-04
     9    1.322966984192e-15
    10   -6.374954596144e-05
    11    2.125293303407e-04
    12    6.071083526998e-04
    13   -8.860699178173e-16
    14    3.017593855417e-03
    15    1.631806936098e-03
    16    1.279477717851e-03
    17   -8.588429905900e-15
    18   -8.055552283056e-06
    19   -2.447539198939e-16
    20    4.129109219832e-17
    21    2.258831165407e-05
    22    5.853786907968e-05
    23    2.969758072527e-06
    24    1.477759929352e-04
    25    3.634227162625e-04
    26    5.543568834312e-04
    27    8.120282477782e-06
    28   -3.707776012971e-05
    29    1.783447537403e-16
    30   -2.035011928913e-05
    31    1.718241965007e-04
    32    2.732335187377e-04
    33    6.372199917470e-04
    34    4.937794333625e-06
    35    1.125330120221e-05
    36    7.149081773290e-16
    37    3.738786746146e-06
    38    1.662866740507e-04
    39    4.162475261838e-04
    40    7.111244069412e-04
    41    3.820781757772e-05
    42    7.484245883963e-06
    43    1.289011931439e-15
    44    3.470236084189e-05
    45   -3.320511084308e-05
    46   -1.027131344761e-04
    47    5.642511709746e-05
    48   -9.122143022397e-16
    49    5.048647334036e-04
    50   -1.092108103585e-04
    51    6.554279885223e-05
    52    4.166719834689e-15
    53    1.014693643756e-03
    54   -2.849764668389e-03
    55    1.788419791770e-03
    56   -3.925411454529e-15
    57    5.776826159062e-04
    58    8.068352989862e-04
    59   -5.004641902104e-04
    60   -6.041291053387e-15
    61   -2.082693029713e-04
    62   -5.562938834905e-16
    63   -6.724140090496e-16
    64   -2.163497766671e-05
    65    4.682409877019e-05
    66    5.506787722348e-01
    67    4.719568864248e-01
    68    1.671578022927e-03
    69   -9.977641047622e-04
    70    2.496006571233e-16
    71    8.150476377601e-03
    72   -3.220695123229e-04
    73    1.842821934820e-04
    74   -1.975701316135e-16
    75   -5.842383224532e-03
    76   -6.721148880979e-04
    77    3.826530549144e-04
    78   -1.065477277991e-15
    79    1.745192917607e-03
    80    1.271940989924e-04
    81   -5.483140051933e-05
    82    1.526019140786e-15
    83    1.034635617780e-03
    84   -5.778009843668e-16
    85   -6.633247724852e-18
    86   -4.303415800040e-05
    87    7.801974827632e-05
    88    3.346901397990e-07
    89    1.377021125604e-05
    90   -1.454451788694e-05
    91    5.619744456175e-07
    92   -7.331263154352e-18
    93   -8.961165737834e-05
    94    1.382338720565e-04
    95   -6.554423033976e-05
    96    2.336655220406e-15
    97   -4.142424400598e-04
    98   -2.862416658244e-04
    99   -4.004814620638e-04
   100   -3.138099014976e-15
   101    2.011723183696e-03
   102    2.387777247050e-04
   103   -1.514539120343e-03
   104   -1.839668106898e-14
   105    5.517613381325e-06
   106   -5.455897498869e-17
   107    1.579888715974e-16
   108   -5.352840500010e-05
   109    8.518128786910e-06
   110   -9.450158821104e-05
   111   -8.554038485633e-05
   112   -1.063273419197e-05
   113    4.928943454038e-06
   114    1.449166699324e-15
   115   -5.854112273099e-05
   116    3.267805200916e-06
   117    1.506691779484e-05
   118   -1.209471520630e-15
   119    3.391923004858e-04
   120   -1.146901957300e-04
   121   -6.101580965282e-05
   122   -2.033418949297e-15
   123   -1.328470194409e-04
   124    1.273572245197e-04
   125    8.365643071765e-05
   126    7.510552978017e-15
   127   -8.771251252791e-07
   128    2.737168143348e-16
   129    1.303756022608e-15
   130   -9.278798444420e-07
   131    2.782865961115e-06
   132   -7.939617666689e-06
   133    8.825887368457e-06
   134   -5.492771249206e-05
   135   -9.030051485196e-06
   136    5.345964955057e-16
   137   -1.188956205991e-04
   138    8.433401699013e-05
   139    8.111384401216e-05
   140   -7.575501868466e-17
   141    8.485351261819e-04
   142    2.112722772707e-06
   143   -8.784549874816e-04
   144   -2.688348968019e-15
   145    4.427357729604e-04
   146    1.400289959553e-03
   147   -5.104324378194e-04
   148    1.209991139153e-14
   149    1.358195173806e-05
   150    4.524689935153e-16
   151   -7.446756996021e-16
   152   -4.391815567174e-05
   153   -7.548945234889e-06
   154   -8.366459159986e-06
   155    7.232961101673e-06
   156   -2.118646127835e-05
   157    5.324255683956e-05
   158   -7.511663786727e-16
   159   -1.103632598334e-04
   160   -1.454027124698e-05
   161   -1.087095850147e-04
   162    5.234403342462e-16
   163    8.382063577397e-04
   164    7.014110366569e-04
   165    4.067024514121e-04
   166   -1.958289898840e-15
   167   -1.276168732490e-04
   168    7.788735057957e-04
   169   -9.835596915663e-04
   170    7.875678503447e-15
   171    2.004616665543e-07
   172   -2.685913990724e-16
   173    2.118364601057e-16
   174    3.943624557430e-05
   175    2.696169909595e-05
   176   -1.478945749166e-06
   177    4.169690446242e-07
   178   -6.728954641095e-06
   179    3.183311232313e-06
   180   -1.275760192739e-15
   181    4.431269715951e-05
   182    5.867907243364e-05
   183    1.127489454569e-05
   184    4.797912559912e-16
   185   -8.413556430926e-04
   186    5.550657406197e-04
   187   -3.122236730106e-04
   188   -9.905457505776e-16
   189   -8.438870693906e-03
   190    1.446021989965e-03
   191   -9.440597236304e-04
   192    1.543832857969e-14
   193    1.476873867049e-05
   194   -3.345860851828e-16
   195   -3.650852453762e-16
   196   -5.309706274902e-07
   197   -3.629352975338e-05
   198    1.360669695691e-06
   199   -1.366395363985e-04
   200   -1.469581551295e-04
   201   -5.031932539779e-04
   202    1.611717830230e-05
   203   -1.054573901070e-05
   204    1.004765103555e-15
Sym=X
Ene= 0.002448
Spin=Alpha
Occup=0
     1    3.379832419388e-07
     2    2.168745585025e-06
     3   -2.312897852761e-06
     4   -1.284680696007e-07
     5   -4.955070454269e-16
     6   -1.596557584305e-05
     7   -1.661693927792e-06
     8   -5.646983862790e-06
     9    8.729857984674e-16
    10    5.528746729942e-04
    11    1.329102577889e-04
    12    2.469673568119e-04
    13   -5.625753939328e-15
    14   -1.427880787314e-04
    15   -2.751523556573e-04
    16    5.543612949736e-04
    17    2.185246161693e-14
    18   -7.689156711882e-07
    19   -8.710822080622e-16
    20   -9.246769585205e-16
    21    5.102123029289e-06
    22   -7.892270291650e-06
    23   -8.621016140456e-08
    24   -1.121358644507e-05
    25    3.645748998712e-05
    26   -5.500937632820e-05
    27    3.008515963135e-06
    28   -3.556601028258e-07
    29    6.638979160513e-16
    30    2.408878443221e-06
    31    1.361555367136e-06
    32    1.340892673186e-04
    33    2.972576023739e-04
    34   -5.830037356124e-06
    35    2.856329917640e-07
    36   -9.018362361328e-16
    37   -1.049794806755e-06
    38   -6.990956230788e-05
    39   -8.949552481441e-05
    40   -7.538734797660e-05
    41    6.505364955951e-06
    42    8.236519240070e-06
    43   -4.362357150532e-16
    44    5.484186916993e-07
    45   -1.055268532174e-06
    46   -5.861386440718e-06
    47   -5.883105593218e-07
    48    8.871469913999e-16
    49    2.749060264240e-06
    50    2.309327360927e-05
    51    1.138308079583e-06
    52   -2.256232501926e-15
    53    2.937546673620e-04
    54    1.942893746494e-04
    55   -2.078086313222e-05
    56    1.868763466660e-15
    57    1.547362396192e-04
    58   -7.123506585513e-06
    59    1.678416826695e-04
    60    9.870489776988e-15
    61   -4.130162718309e-06
    62    3.402859719154e-16
    63   -1.374229372682e-15
    64    4.381843049338e-06
    65    3.614953467605e-07
    66   -9.418202070524e-05
    67   -9.176866535252e-05
    68   -2.481123660708e-07
    69    5.362891229944e-07
    70   -2.374663727246e-16
    71    9.144957303907e-07
    72    2.709928493066e-06
    73    1.222156055728e-06
    74   -1.938150358756e-16
    75   -2.020078006543e-06
    76   -9.645024347253e-06
    77   -8.582516728514e-06
    78    2.418216466677e-15
    79    2.832485113877e-04
    80    1.370772779228e-04
    81   -4.525549195468e-05
    82   -3.061501554188e-15
    83   -9.968046282007e-08
    84    3.484018882233e-16
    85   -2.043142829142e-16
    86   -6.113166058507e-07
    87   -2.884272499611e-07
    88   -2.278231949523e-06
    89    7.735192863917e-05
    90   -6.031056615005e-05
    91   -4.493676377217e-05
    92    1.097643783751e-15
    93   -2.943420615959e-04
    94   -3.496068605464e-04
    95   -2.188261932462e-04
    96   -1.630824648919e-15
    97    2.600936504423e-04
    98   -4.490094849949e-04
    99   -3.525117924792e-04
   100   -2.288008659066e-16
   101    1.615171471616e-03
   102    6.924118535576e-04
   103   -3.831462661490e-04
   104   -1.578931759010e-15
   105    5.158422189943e-05
   106   -9.476478213082e-16
   107    6.577781613135e-16
   108   -8.937165587914e-05
   109   -1.932193100161e-04
   110   -5.515435910376e-01
   111   -4.716596800889e-01
   112    1.546250123715e-03
   113    8.667023816977e-04
   114   -1.667754705142e-15
   115   -5.319210211719e-03
   116   -6.478940304887e-04
   117   -3.452291127869e-04
   118    2.519163457830e-15
   119    1.029253074908e-03
   120    1.785326471797e-04
   121    1.042956650410e-04
   122   -3.577059265883e-15
   123   -1.199620689848e-03
   124   -5.138407411268e-06
   125    5.186462874719e-06
   126    6.275714722910e-15
   127    2.008917447559e-04
   128   -9.105264298545e-16
   129   -9.138393197837e-16
   130    3.624911094276e-05
   131    6.973455336621e-05
   132   -5.578893519350e-07
   133   -2.338620811607e-06
   134    1.381182758402e-05
   135   -8.153344830333e-07
   136   -6.228990678096e-16
   137    3.376461386062e-05
   138   -3.749283813634e-05
   139    4.171299820226e-06
   140    5.383004067320e-16
   141   -3.395534145880e-04
   142    8.553075516798e-05
   143    2.615199326377e-04
   144   -2.874039206715e-16
   145    1.973506071453e-04
   146    5.663702693043e-04
   147    1.435329247290e-04
   148   -2.374034710689e-15
   149    1.031999896376e-05
   150   -5.716599800460e-16
   151    6.751500743018e-16
   152   -2.495007394934e-05
   153    1.210286034352e-05
   154    2.545979526187e-08
   155   -6.375656442695e-07
   156   -9.527853229699e-08
   157   -1.750615687292e-07
   158    1.270230653010e-15
   159    1.061122567525e-05
   160   -3.530335607785e-07
   161    2.121125973126e-06
   162   -2.889367671769e-15
   163   -1.619474530451e-04
   164   -8.164682581536e-05
   165   -2.531345967456e-05
   166    7.159587839963e-15
   167   -9.683838819604e-05
   168    6.555700062681e-05
   169    5.999274401696e-06
   170   -1.846344506880e-14
   171    6.981260788400e-08
   172    1.729433056087e-15
   173   -1.465287369714e-16
   174   -6.422430239457e-07
   175    1.412931598401e-06
   176   -2.201224842877e-06
   177   -2.894381886855e-06
   178    6.311069788431e-06
   179    1.958863977784e-05
   180   -6.099297390836e-16
   181    2.470013625230e-05
   182   -5.585793916646e-06
   183   -7.477338538157e-05
   184    6.047197010263e-16
   185   -6.008927864044e-04
   186    5.327241874708e-04
   187   -9.410365715770e-05
   188    4.289564458128e-15
   189   -1.190315126690e-03
   190   -8.783558707163e-05
   191   -9.948302584067e-04
   192   -1.407320717782e-14
   193    4.716432177218e-06
   194   -9.438423309828e-16
   195   -9.799362290824e-16
   196    3.229879410367e-05
   197   -2.881672204463e-05
   198    3.134937877722e-06
   199   -1.209610818982e-04
   200   -1.582289934109e-04
   201   -3.466347158440e-04
   202    1.954476931926e-05
   203   -1.278959508402e-05
   204    7.627757979376e-16
[5D]
