[Molden Format]
[Atoms] (Angs)
  C      1    6     -0.00714236     -1.70213747     -0.00000000
  H      2    1     -2.06882847     -1.44022412      0.00000000
  H      3    1     -0.12337987     -2.77567521      0.00000000
  H      4    1      0.04651892      1.98813947     -0.00000000
  C      5    6     -1.21953563      0.40211669      0.00000000
  O      6    8     -2.25921553      1.03043814      0.00000000
  C      7    6      1.28797806      0.34644937     -0.00000000
  O      8    8      2.31273661      1.00537216     -0.00000000
  N      9    7      0.03446295      0.97739857     -0.00000000
  N     10    7     -1.17287765     -0.98229824      0.00000000
  C     11    6      1.20107039     -1.10433419     -0.00000000
  H     12    1      2.11220096     -1.67699125     -0.00000000
[GTO]
1    0
S    6    1.000000
   4.56324000E+03    1.96665000E-03 
   6.82024000E+02    1.52306000E-02 
   1.54973000E+02    7.61269000E-02 
   4.44553000E+01    2.60801000E-01 
   1.30290000E+01    6.16462000E-01 
   1.82773000E+00    2.21006000E-01 
SP   3    1.000000
   2.09642000E+01    1.14660000E-01   4.02487000E-02 
   4.80331000E+00    9.19999000E-01   2.37594000E-01 
   1.45933000E+00   -3.03068000E-03   8.15854000E-01 
SP   1    1.000000
   4.83456000E-01    1.00000000E+00   1.00000000E+00 
SP   1    1.000000
   1.45585000E-01    1.00000000E+00   1.00000000E+00 
SP   1    1.000000
   4.38000000E-02    1.00000000E+00   1.00000000E+00 
D    1    1.000000
   6.26000000E-01    1.00000000E+00 

2    0
S    3    1.000000
   3.38650000E+01    2.54938000E-02 
   5.09479000E+00    1.90373000E-01 
   1.15879000E+00    8.52161000E-01 
S    1    1.000000
   3.25840000E-01    1.00000000E+00 
S    1    1.000000
   1.02741000E-01    1.00000000E+00 
S    1    1.000000
   3.60000000E-02    1.00000000E+00 
P    1    1.000000
   7.50000000E-01    1.00000000E+00 

3    0
S    3    1.000000
   3.38650000E+01    2.54938000E-02 
   5.09479000E+00    1.90373000E-01 
   1.15879000E+00    8.52161000E-01 
S    1    1.000000
   3.25840000E-01    1.00000000E+00 
S    1    1.000000
   1.02741000E-01    1.00000000E+00 
S    1    1.000000
   3.60000000E-02    1.00000000E+00 
P    1    1.000000
   7.50000000E-01    1.00000000E+00 

4    0
S    3    1.000000
   3.38650000E+01    2.54938000E-02 
   5.09479000E+00    1.90373000E-01 
   1.15879000E+00    8.52161000E-01 
S    1    1.000000
   3.25840000E-01    1.00000000E+00 
S    1    1.000000
   1.02741000E-01    1.00000000E+00 
S    1    1.000000
   3.60000000E-02    1.00000000E+00 
P    1    1.000000
   7.50000000E-01    1.00000000E+00 

5    0
S    6    1.000000
   4.56324000E+03    1.96665000E-03 
   6.82024000E+02    1.52306000E-02 
   1.54973000E+02    7.61269000E-02 
   4.44553000E+01    2.60801000E-01 
   1.30290000E+01    6.16462000E-01 
   1.82773000E+00    2.21006000E-01 
SP   3    1.000000
   2.09642000E+01    1.14660000E-01   4.02487000E-02 
   4.80331000E+00    9.19999000E-01   2.37594000E-01 
   1.45933000E+00   -3.03068000E-03   8.15854000E-01 
SP   1    1.000000
   4.83456000E-01    1.00000000E+00   1.00000000E+00 
SP   1    1.000000
   1.45585000E-01    1.00000000E+00   1.00000000E+00 
SP   1    1.000000
   4.38000000E-02    1.00000000E+00   1.00000000E+00 
D    1    1.000000
   6.26000000E-01    1.00000000E+00 

6    0
S    6    1.000000
   8.58850000E+03    1.89515000E-03 
   1.29723000E+03    1.43859000E-02 
   2.99296000E+02    7.07320000E-02 
   8.73771000E+01    2.40001000E-01 
   2.56789000E+01    5.94797000E-01 
   3.74004000E+00    2.80802000E-01 
SP   3    1.000000
   4.21175000E+01    1.13889000E-01   3.65114000E-02 
   9.62837000E+00    9.20811000E-01   2.37153000E-01 
   2.85332000E+00   -3.27447000E-03   8.19702000E-01 
SP   1    1.000000
   9.05661000E-01    1.00000000E+00   1.00000000E+00 
SP   1    1.000000
   2.55611000E-01    1.00000000E+00   1.00000000E+00 
SP   1    1.000000
   8.45000000E-02    1.00000000E+00   1.00000000E+00 
D    1    1.000000
   1.29200000E+00    1.00000000E+00 

7    0
S    6    1.000000
   4.56324000E+03    1.96665000E-03 
   6.82024000E+02    1.52306000E-02 
   1.54973000E+02    7.61269000E-02 
   4.44553000E+01    2.60801000E-01 
   1.30290000E+01    6.16462000E-01 
   1.82773000E+00    2.21006000E-01 
SP   3    1.000000
   2.09642000E+01    1.14660000E-01   4.02487000E-02 
   4.80331000E+00    9.19999000E-01   2.37594000E-01 
   1.45933000E+00   -3.03068000E-03   8.15854000E-01 
SP   1    1.000000
   4.83456000E-01    1.00000000E+00   1.00000000E+00 
SP   1    1.000000
   1.45585000E-01    1.00000000E+00   1.00000000E+00 
SP   1    1.000000
   4.38000000E-02    1.00000000E+00   1.00000000E+00 
D    1    1.000000
   6.26000000E-01    1.00000000E+00 

8    0
S    6    1.000000
   8.58850000E+03    1.89515000E-03 
   1.29723000E+03    1.43859000E-02 
   2.99296000E+02    7.07320000E-02 
   8.73771000E+01    2.40001000E-01 
   2.56789000E+01    5.94797000E-01 
   3.74004000E+00    2.80802000E-01 
SP   3    1.000000
   4.21175000E+01    1.13889000E-01   3.65114000E-02 
   9.62837000E+00    9.20811000E-01   2.37153000E-01 
   2.85332000E+00   -3.27447000E-03   8.19702000E-01 
SP   1    1.000000
   9.05661000E-01    1.00000000E+00   1.00000000E+00 
SP   1    1.000000
   2.55611000E-01    1.00000000E+00   1.00000000E+00 
SP   1    1.000000
   8.45000000E-02    1.00000000E+00   1.00000000E+00 
D    1    1.000000
   1.29200000E+00    1.00000000E+00 

9    0
S    6    1.000000
   6.29348000E+03    1.96979000E-03 
   9.49044000E+02    1.49613000E-02 
   2.18776000E+02    7.35006000E-02 
   6.36916000E+01    2.48937000E-01 
   1.88282000E+01    6.02460000E-01 
   2.72023000E+00    2.56202000E-01 
SP   3    1.000000
   3.06331000E+01    1.11906000E-01   3.83119000E-02 
   7.02614000E+00    9.21666000E-01   2.37403000E-01 
   2.11205000E+00   -2.56919000E-03   8.17592000E-01 
SP   1    1.000000
   6.84009000E-01    1.00000000E+00   1.00000000E+00 
SP   1    1.000000
   2.00878000E-01    1.00000000E+00   1.00000000E+00 
SP   1    1.000000
   6.39000000E-02    1.00000000E+00   1.00000000E+00 
D    1    1.000000
   9.13000000E-01    1.00000000E+00 

10    0
S    6    1.000000
   6.29348000E+03    1.96979000E-03 
   9.49044000E+02    1.49613000E-02 
   2.18776000E+02    7.35006000E-02 
   6.36916000E+01    2.48937000E-01 
   1.88282000E+01    6.02460000E-01 
   2.72023000E+00    2.56202000E-01 
SP   3    1.000000
   3.06331000E+01    1.11906000E-01   3.83119000E-02 
   7.02614000E+00    9.21666000E-01   2.37403000E-01 
   2.11205000E+00   -2.56919000E-03   8.17592000E-01 
SP   1    1.000000
   6.84009000E-01    1.00000000E+00   1.00000000E+00 
SP   1    1.000000
   2.00878000E-01    1.00000000E+00   1.00000000E+00 
SP   1    1.000000
   6.39000000E-02    1.00000000E+00   1.00000000E+00 
D    1    1.000000
   9.13000000E-01    1.00000000E+00 

11    0
S    6    1.000000
   4.56324000E+03    1.96665000E-03 
   6.82024000E+02    1.52306000E-02 
   1.54973000E+02    7.61269000E-02 
   4.44553000E+01    2.60801000E-01 
   1.30290000E+01    6.16462000E-01 
   1.82773000E+00    2.21006000E-01 
SP   3    1.000000
   2.09642000E+01    1.14660000E-01   4.02487000E-02 
   4.80331000E+00    9.19999000E-01   2.37594000E-01 
   1.45933000E+00   -3.03068000E-03   8.15854000E-01 
SP   1    1.000000
   4.83456000E-01    1.00000000E+00   1.00000000E+00 
SP   1    1.000000
   1.45585000E-01    1.00000000E+00   1.00000000E+00 
SP   1    1.000000
   4.38000000E-02    1.00000000E+00   1.00000000E+00 
D    1    1.000000
   6.26000000E-01    1.00000000E+00 

12    0
S    3    1.000000
   3.38650000E+01    2.54938000E-02 
   5.09479000E+00    1.90373000E-01 
   1.15879000E+00    8.52161000E-01 
S    1    1.000000
   3.25840000E-01    1.00000000E+00 
S    1    1.000000
   1.02741000E-01    1.00000000E+00 
S    1    1.000000
   3.60000000E-02    1.00000000E+00 
P    1    1.000000
   7.50000000E-01    1.00000000E+00 

[MO]
Sym=X
Ene= -0.495253
Spin=Alpha
Occup=1
     1   -9.653538751227e-03
     2   -1.666413185828e-02
     3    2.524980725272e-04
     4   -3.319096907396e-02
     5   -4.766216204116e-14
     6    5.035666288623e-02
     7    1.380406331498e-03
     8   -5.213168239632e-02
     9   -8.360952231008e-14
    10    1.586484047016e-01
    11   -3.310284573400e-02
    12   -1.290610463924e-01
    13   -1.314943588622e-13
    14    1.786673828403e+00
    15   -3.186999137389e-01
    16   -8.692831800249e-01
    17   -1.148540780045e-13
    18   -3.315355741317e-03
    19    6.411052679221e-15
    20    3.725041064502e-15
    21    1.306209079268e-02
    22   -3.135143837476e-03
    23   -2.512295560904e-03
    24   -2.440961039449e-02
    25   -1.016928730519e-02
    26   -5.871302320420e-01
    27    3.350155790372e-03
    28    1.296140429184e-03
    29   -1.733915298271e-15
    30   -8.100335625506e-04
    31   -5.114738932287e-03
    32   -3.160291248375e-01
    33   -1.793403827664e+00
    34    1.167445965075e-03
    35    9.101222056563e-03
    36   -1.010176036095e-14
    37   -1.827240017870e-03
    38    2.670152424669e-03
    39    5.398532708758e-01
    40    1.350750260366e+00
    41    3.857162571287e-03
    42    9.564147673803e-03
    43   -3.411718632467e-15
    44   -3.914278366261e-03
    45   -7.266936804724e-03
    46    6.584459129050e-03
    47   -2.897620795348e-03
    48    2.249332064168e-14
    49    3.306878892168e-02
    50    1.461887890696e-02
    51   -5.329712376119e-03
    52    3.291262582050e-14
    53   -9.226082105321e-02
    54   -6.435035876397e-02
    55   -6.284108385884e-04
    56    1.175054207481e-13
    57    9.488382878331e-02
    58   -2.229270197473e-01
    59   -7.044314265584e-01
    60    4.510569440991e-13
    61    2.917978281157e-03
    62   -6.220893588719e-16
    63   -6.310892186584e-15
    64    5.613656561034e-03
    65    3.404548900531e-05
    66    7.707297514719e-04
    67    1.308704989826e-03
    68   -4.378358639379e-03
    69   -6.947949884290e-03
    70   -2.790791671094e-14
    71   -3.798425187505e-03
    72   -6.745433023863e-03
    73   -9.295739190907e-03
    74   -4.959842121786e-14
    75   -1.602935343664e-02
    76   -3.527620094976e-03
    77   -1.697789954748e-02
    78   -5.279832612108e-14
    79    1.756278744232e-02
    80    9.628245776942e-03
    81    7.062397917837e-02
    82   -9.216373338076e-14
    83   -1.254822247711e-05
    84   -9.896837213059e-18
    85    1.252328601256e-16
    86   -4.267580035184e-04
    87   -3.954826554680e-04
    88   -3.477684787407e-03
    89   -6.228410744029e-03
    90    6.370509016515e-03
    91   -2.849193692445e-03
    92    1.041211845558e-14
    93    2.273443034904e-02
    94    1.136232587729e-02
    95   -8.939340931570e-03
    96    8.866559561991e-15
    97    1.300993604446e-02
    98    1.867766977639e-01
    99    1.076108010781e-01
   100    4.840977564942e-14
   101    8.674697875539e-01
   102   -3.927756166218e-01
   103    5.236131860252e-01
   104   -1.051023102999e-13
   105    4.369633749919e-03
   106    2.511381468286e-15
   107   -8.960461819022e-15
   108    9.353917178192e-03
   109   -8.630565535139e-03
   110    6.791938888487e-03
   111    1.169781857978e-02
   112    2.129860480356e-02
   113   -2.745982331120e-02
   114   -5.572826184720e-15
   115   -3.836836246684e-02
   116    2.976657278762e-02
   117   -3.763919266925e-02
   118   -6.204401682337e-15
   119   -1.204409603017e-01
   120    4.480152980914e-02
   121   -1.410884704397e-02
   122   -2.115161119502e-14
   123   -2.843414053543e-01
   124    3.483123387388e-02
   125    7.754152431338e-02
   126   -7.034762031353e-14
   127    9.300690301898e-05
   128   -9.192164249236e-16
   129   -1.216359007239e-15
   130   -3.564207575309e-03
   131    1.370374887693e-03
   132    6.529036366558e-03
   133    1.134758653642e-02
   134    7.025896874926e-04
   135   -3.591567990747e-02
   136   -2.865231018577e-14
   137   -3.623266217074e-02
   138   -2.044373932530e-03
   139   -5.473252842006e-02
   140   -4.195262269178e-14
   141   -6.022626604851e-02
   142    2.221763107690e-03
   143   -1.366602304700e-01
   144   -7.768739247983e-14
   145   -1.574715696442e-01
   146   -1.717867079691e-01
   147   -9.242421895705e-01
   148   -4.314603136163e-14
   149    5.241932372066e-04
   150   -2.338313832569e-15
   151   -4.883723397533e-16
   152   -4.587962915478e-04
   153    2.636998288606e-03
   154   -4.073688780001e-03
   155   -6.947183305342e-03
   156   -8.241036851629e-03
   157   -1.653936811884e-02
   158    2.167845324758e-14
   159    1.998436615241e-02
   160   -1.378656740522e-02
   161   -2.431814574446e-02
   162    2.406491301082e-14
   163    8.880871746639e-02
   164   -2.551885337581e-02
   165   -3.115945897444e-02
   166    6.479718888001e-14
   167   -5.052631604526e-01
   168    1.645643285375e-02
   169   -3.003894278152e-02
   170   -2.905751173262e-13
   171   -1.732793315741e-03
   172   -3.941912340977e-15
   173    7.380995554476e-15
   174   -4.730387278393e-03
   175   -1.951362348089e-03
   176   -8.445268132187e-03
   177   -1.456006592066e-02
   178    2.605397580422e-02
   179   -2.848331115693e-02
   180    3.654362528608e-14
   181    4.245129175819e-02
   182    3.839494535314e-02
   183   -3.748926223504e-02
   184    5.927700493194e-14
   185    2.821684160253e-01
   186    4.854390728102e-02
   187   -4.186066671181e-02
   188    1.240007999842e-13
   189    1.297272774168e+00
   190    1.477386131425e+00
   191   -6.988731666974e-01
   192    1.748903623681e-13
   193   -2.815140499194e-03
   194    1.929204479431e-15
   195    6.248584979277e-15
   196   -7.215875113344e-03
   197    8.279331752569e-03
   198    1.370309905147e-03
   199    1.507204418444e-02
   200   -3.264698726955e-01
   201   -2.575120788438e+00
   202   -9.506155872513e-03
   203    5.603892482152e-03
   204    4.089656107026e-15
Sym=X
Ene= 0.495253
Spin=Alpha
Occup=0
     1   -2.622686934170e-15
     2   -1.348290244227e-14
     3    4.184649382229e-15
     4   -1.189373757126e-14
     5    1.437024740689e-02
     6    2.795539980478e-14
     7   -1.655884528815e-14
     8   -1.870917958116e-14
     9    4.176058832824e-02
    10    1.991304142675e-13
    11    3.723851444458e-13
    12   -1.214528304890e-13
    13    2.715649111727e-02
    14   -7.171277318633e-13
    15    2.347284508886e-12
    16   -1.000310382917e-12
    17   -5.361882284408e-01
    18   -1.769194317610e-14
    19   -1.388270702570e-02
    20   -8.268052943365e-03
    21    1.998435305645e-15
    22    1.874192644148e-14
    23    1.489580795080e-14
    24   -1.168600591329e-14
    25    6.326219436061e-13
    26    2.206255724612e-13
    27    5.054959642858e-15
    28    2.192730008345e-15
    29    8.606929450609e-04
    30    1.827629361698e-14
    31   -1.380143882706e-13
    32    5.649584057203e-13
    33    1.744269304644e-12
    34   -1.253633366258e-14
    35   -1.054259109605e-14
    36    7.036180970595e-03
    37   -6.404967383410e-16
    38    3.441344310978e-16
    39    5.281270464882e-13
    40   -1.259208695320e-12
    41    5.507010607222e-16
    42    1.946750980492e-14
    43   -5.715691542214e-04
    44   -2.034362678376e-15
    45   -3.294981737069e-15
    46    1.684439542881e-14
    47    2.931403684733e-15
    48   -1.704007769344e-02
    49   -1.128383705378e-14
    50    2.268237864236e-14
    51   -2.116106152702e-14
    52   -2.995912551042e-02
    53    6.334714481905e-14
    54    7.074367412805e-13
    55   -3.640310876048e-14
    56   -7.374048118805e-02
    57    3.224089110411e-12
    58    1.600605706545e-12
    59   -4.283308994761e-13
    60   -1.771446029942e+00
    61    1.409815542176e-14
    62   -9.288308072359e-03
    63    5.493463274371e-03
    64    4.536606844181e-15
    65    2.332537425039e-15
    66   -1.381080213591e-17
    67    2.983618148417e-15
    68   -6.256961061807e-15
    69    2.202299404259e-15
    70    4.773180576816e-02
    71   -1.077962573329e-14
    72   -1.368648140357e-14
    73    7.012854562223e-15
    74    8.394541533057e-02
    75    7.740257225769e-14
    76    9.161099066186e-14
    77   -3.181532132184e-14
    78    3.483855020638e-02
    79    1.579753569358e-12
    80    2.050763721511e-13
    81   -5.736962011347e-13
    82    4.973007793967e-01
    83    2.049580940309e-15
    84    1.004926480721e-03
    85   -9.045857998085e-04
    86    1.050580100599e-15
    87   -7.459225261337e-16
    88    1.065281558704e-15
    89    5.288485897950e-16
    90   -4.475712391506e-15
    91    7.459429044995e-15
    92    2.905962323403e-03
    93   -3.329642636880e-14
    94    3.933633145293e-15
    95   -2.588346603220e-14
    96    2.251598858181e-02
    97    5.327216626752e-13
    98   -3.269894351173e-13
    99    8.276869428507e-14
   100   -2.570722550953e-02
   101    8.609074819500e-13
   102   -5.158658735876e-12
   103    1.218382774124e-12
   104   -4.473196468847e-01
   105   -1.430330042677e-14
   106   -4.888055320402e-03
   107    1.501550899898e-02
   108    9.963658483148e-15
   109   -5.486502728833e-15
   110    1.287666099594e-16
   111    3.300359936735e-16
   112    3.125223226349e-15
   113   -1.452532155264e-14
   114   -2.837317462313e-02
   115   -3.865824645079e-16
   116    2.257424823182e-14
   117   -2.076290843149e-14
   118   -3.628228138912e-02
   119    8.544834812254e-15
   120   -1.010045506390e-13
   121   -5.433144830482e-14
   122   -5.997479007733e-02
   123    6.900999175757e-13
   124    6.806205892853e-13
   125    1.280567153807e-13
   126    1.730453326033e-01
   127   -3.095169211661e-15
   128    2.324395924716e-03
   129   -2.132901912771e-04
   130   -1.487330209551e-15
   131   -2.173800942605e-16
   132    9.124498762377e-15
   133    1.678305083426e-14
   134    1.610926741285e-14
   135   -2.479297823913e-14
   136    4.027700826652e-02
   137   -4.695295889425e-14
   138    2.389203464186e-14
   139   -6.006056999532e-14
   140    6.698413863451e-02
   141   -2.101944993827e-13
   142    1.228746449527e-13
   143    1.784368361732e-13
   144    8.637349192983e-02
   145   -7.566227957949e-12
   146    4.632530167847e-14
   147    9.098977610605e-13
   148    2.512046738908e-01
   149    3.496665446982e-16
   150    7.285995715630e-03
   151   -4.283304916325e-04
   152   -2.982706344709e-15
   153    5.847549060935e-15
   154    7.568235607437e-15
   155    1.012459824655e-14
   156    4.462338536518e-15
   157    2.867134817562e-15
   158    2.138012360169e-02
   159   -1.880400053038e-14
   160   -2.858333794321e-15
   161   -1.857204654317e-14
   162    4.407904419416e-02
   163   -2.454461660156e-13
   164    8.959182602310e-14
   165    4.709342891519e-14
   166    4.122226048731e-03
   167    2.281332919969e-12
   168    1.246714050151e-12
   169   -9.188288987996e-13
   170    5.467488200468e-01
   171    1.395941159753e-15
   172    3.058477641289e-03
   173   -6.185084201849e-03
   174   -1.639503443144e-15
   175   -7.805646873446e-16
   176   -1.057119801579e-14
   177   -2.350789071430e-14
   178    3.115683121415e-16
   179   -1.129347090106e-14
   180   -7.785653056716e-02
   181    7.423701003145e-14
   182    3.967353511641e-14
   183   -2.994620657707e-14
   184   -9.285613026242e-02
   185    7.387064848366e-14
   186    1.686531514537e-13
   187    1.007359866350e-13
   188   -3.844192903238e-01
   189   -4.563616453192e-12
   190    3.583665799659e-12
   191    3.960407554398e-12
   192    1.743655026509e+00
   193   -4.602049511744e-15
   194    6.604525752560e-03
   195   -9.556443960487e-03
   196    9.723763456066e-15
   197   -6.489453401900e-15
   198    1.696226127993e-14
   199    1.111781433233e-14
   200    3.309670217860e-13
   201    1.368457546835e-12
   202   -8.206197694202e-15
   203   -2.743071124191e-16
   204    4.070041842265e-03
[5D]
