[Molden Format]
[Atoms] (Angs)
  C      1    6     -0.00714236     -1.70213747     -0.00000000
  H      2    1     -2.06882847     -1.44022412      0.00000000
  H      3    1     -0.12337987     -2.77567521      0.00000000
  H      4    1      0.04651892      1.98813947     -0.00000000
  C      5    6     -1.21953563      0.40211669      0.00000000
  O      6    8     -2.25921553      1.03043814      0.00000000
  C      7    6      1.28797806      0.34644937     -0.00000000
  O      8    8      2.31273661      1.00537216     -0.00000000
  N      9    7      0.03446295      0.97739857     -0.00000000
  N     10    7     -1.17287765     -0.98229824      0.00000000
  C     11    6      1.20107039     -1.10433419     -0.00000000
  H     12    1      2.11220096     -1.67699125     -0.00000000
[GTO]
1    0
S    6    1.000000
   4.56324000E+03    1.96665000E-03 
   6.82024000E+02    1.52306000E-02 
   1.54973000E+02    7.61269000E-02 
   4.44553000E+01    2.60801000E-01 
   1.30290000E+01    6.16462000E-01 
   1.82773000E+00    2.21006000E-01 
SP   3    1.000000
   2.09642000E+01    1.14660000E-01   4.02487000E-02 
   4.80331000E+00    9.19999000E-01   2.37594000E-01 
   1.45933000E+00   -3.03068000E-03   8.15854000E-01 
SP   1    1.000000
   4.83456000E-01    1.00000000E+00   1.00000000E+00 
SP   1    1.000000
   1.45585000E-01    1.00000000E+00   1.00000000E+00 
SP   1    1.000000
   4.38000000E-02    1.00000000E+00   1.00000000E+00 
D    1    1.000000
   6.26000000E-01    1.00000000E+00 

2    0
S    3    1.000000
   3.38650000E+01    2.54938000E-02 
   5.09479000E+00    1.90373000E-01 
   1.15879000E+00    8.52161000E-01 
S    1    1.000000
   3.25840000E-01    1.00000000E+00 
S    1    1.000000
   1.02741000E-01    1.00000000E+00 
S    1    1.000000
   3.60000000E-02    1.00000000E+00 
P    1    1.000000
   7.50000000E-01    1.00000000E+00 

3    0
S    3    1.000000
   3.38650000E+01    2.54938000E-02 
   5.09479000E+00    1.90373000E-01 
   1.15879000E+00    8.52161000E-01 
S    1    1.000000
   3.25840000E-01    1.00000000E+00 
S    1    1.000000
   1.02741000E-01    1.00000000E+00 
S    1    1.000000
   3.60000000E-02    1.00000000E+00 
P    1    1.000000
   7.50000000E-01    1.00000000E+00 

4    0
S    3    1.000000
   3.38650000E+01    2.54938000E-02 
   5.09479000E+00    1.90373000E-01 
   1.15879000E+00    8.52161000E-01 
S    1    1.000000
   3.25840000E-01    1.00000000E+00 
S    1    1.000000
   1.02741000E-01    1.00000000E+00 
S    1    1.000000
   3.60000000E-02    1.00000000E+00 
P    1    1.000000
   7.50000000E-01    1.00000000E+00 

5    0
S    6    1.000000
   4.56324000E+03    1.96665000E-03 
   6.82024000E+02    1.52306000E-02 
   1.54973000E+02    7.61269000E-02 
   4.44553000E+01    2.60801000E-01 
   1.30290000E+01    6.16462000E-01 
   1.82773000E+00    2.21006000E-01 
SP   3    1.000000
   2.09642000E+01    1.14660000E-01   4.02487000E-02 
   4.80331000E+00    9.19999000E-01   2.37594000E-01 
   1.45933000E+00   -3.03068000E-03   8.15854000E-01 
SP   1    1.000000
   4.83456000E-01    1.00000000E+00   1.00000000E+00 
SP   1    1.000000
   1.45585000E-01    1.00000000E+00   1.00000000E+00 
SP   1    1.000000
   4.38000000E-02    1.00000000E+00   1.00000000E+00 
D    1    1.000000
   6.26000000E-01    1.00000000E+00 

6    0
S    6    1.000000
   8.58850000E+03    1.89515000E-03 
   1.29723000E+03    1.43859000E-02 
   2.99296000E+02    7.07320000E-02 
   8.73771000E+01    2.40001000E-01 
   2.56789000E+01    5.94797000E-01 
   3.74004000E+00    2.80802000E-01 
SP   3    1.000000
   4.21175000E+01    1.13889000E-01   3.65114000E-02 
   9.62837000E+00    9.20811000E-01   2.37153000E-01 
   2.85332000E+00   -3.27447000E-03   8.19702000E-01 
SP   1    1.000000
   9.05661000E-01    1.00000000E+00   1.00000000E+00 
SP   1    1.000000
   2.55611000E-01    1.00000000E+00   1.00000000E+00 
SP   1    1.000000
   8.45000000E-02    1.00000000E+00   1.00000000E+00 
D    1    1.000000
   1.29200000E+00    1.00000000E+00 

7    0
S    6    1.000000
   4.56324000E+03    1.96665000E-03 
   6.82024000E+02    1.52306000E-02 
   1.54973000E+02    7.61269000E-02 
   4.44553000E+01    2.60801000E-01 
   1.30290000E+01    6.16462000E-01 
   1.82773000E+00    2.21006000E-01 
SP   3    1.000000
   2.09642000E+01    1.14660000E-01   4.02487000E-02 
   4.80331000E+00    9.19999000E-01   2.37594000E-01 
   1.45933000E+00   -3.03068000E-03   8.15854000E-01 
SP   1    1.000000
   4.83456000E-01    1.00000000E+00   1.00000000E+00 
SP   1    1.000000
   1.45585000E-01    1.00000000E+00   1.00000000E+00 
SP   1    1.000000
   4.38000000E-02    1.00000000E+00   1.00000000E+00 
D    1    1.000000
   6.26000000E-01    1.00000000E+00 

8    0
S    6    1.000000
   8.58850000E+03    1.89515000E-03 
   1.29723000E+03    1.43859000E-02 
   2.99296000E+02    7.07320000E-02 
   8.73771000E+01    2.40001000E-01 
   2.56789000E+01    5.94797000E-01 
   3.74004000E+00    2.80802000E-01 
SP   3    1.000000
   4.21175000E+01    1.13889000E-01   3.65114000E-02 
   9.62837000E+00    9.20811000E-01   2.37153000E-01 
   2.85332000E+00   -3.27447000E-03   8.19702000E-01 
SP   1    1.000000
   9.05661000E-01    1.00000000E+00   1.00000000E+00 
SP   1    1.000000
   2.55611000E-01    1.00000000E+00   1.00000000E+00 
SP   1    1.000000
   8.45000000E-02    1.00000000E+00   1.00000000E+00 
D    1    1.000000
   1.29200000E+00    1.00000000E+00 

9    0
S    6    1.000000
   6.29348000E+03    1.96979000E-03 
   9.49044000E+02    1.49613000E-02 
   2.18776000E+02    7.35006000E-02 
   6.36916000E+01    2.48937000E-01 
   1.88282000E+01    6.02460000E-01 
   2.72023000E+00    2.56202000E-01 
SP   3    1.000000
   3.06331000E+01    1.11906000E-01   3.83119000E-02 
   7.02614000E+00    9.21666000E-01   2.37403000E-01 
   2.11205000E+00   -2.56919000E-03   8.17592000E-01 
SP   1    1.000000
   6.84009000E-01    1.00000000E+00   1.00000000E+00 
SP   1    1.000000
   2.00878000E-01    1.00000000E+00   1.00000000E+00 
SP   1    1.000000
   6.39000000E-02    1.00000000E+00   1.00000000E+00 
D    1    1.000000
   9.13000000E-01    1.00000000E+00 

10    0
S    6    1.000000
   6.29348000E+03    1.96979000E-03 
   9.49044000E+02    1.49613000E-02 
   2.18776000E+02    7.35006000E-02 
   6.36916000E+01    2.48937000E-01 
   1.88282000E+01    6.02460000E-01 
   2.72023000E+00    2.56202000E-01 
SP   3    1.000000
   3.06331000E+01    1.11906000E-01   3.83119000E-02 
   7.02614000E+00    9.21666000E-01   2.37403000E-01 
   2.11205000E+00   -2.56919000E-03   8.17592000E-01 
SP   1    1.000000
   6.84009000E-01    1.00000000E+00   1.00000000E+00 
SP   1    1.000000
   2.00878000E-01    1.00000000E+00   1.00000000E+00 
SP   1    1.000000
   6.39000000E-02    1.00000000E+00   1.00000000E+00 
D    1    1.000000
   9.13000000E-01    1.00000000E+00 

11    0
S    6    1.000000
   4.56324000E+03    1.96665000E-03 
   6.82024000E+02    1.52306000E-02 
   1.54973000E+02    7.61269000E-02 
   4.44553000E+01    2.60801000E-01 
   1.30290000E+01    6.16462000E-01 
   1.82773000E+00    2.21006000E-01 
SP   3    1.000000
   2.09642000E+01    1.14660000E-01   4.02487000E-02 
   4.80331000E+00    9.19999000E-01   2.37594000E-01 
   1.45933000E+00   -3.03068000E-03   8.15854000E-01 
SP   1    1.000000
   4.83456000E-01    1.00000000E+00   1.00000000E+00 
SP   1    1.000000
   1.45585000E-01    1.00000000E+00   1.00000000E+00 
SP   1    1.000000
   4.38000000E-02    1.00000000E+00   1.00000000E+00 
D    1    1.000000
   6.26000000E-01    1.00000000E+00 

12    0
S    3    1.000000
   3.38650000E+01    2.54938000E-02 
   5.09479000E+00    1.90373000E-01 
   1.15879000E+00    8.52161000E-01 
S    1    1.000000
   3.25840000E-01    1.00000000E+00 
S    1    1.000000
   1.02741000E-01    1.00000000E+00 
S    1    1.000000
   3.60000000E-02    1.00000000E+00 
P    1    1.000000
   7.50000000E-01    1.00000000E+00 

[MO]
Sym=X
Ene= -0.487621
Spin=Alpha
Occup=1
     1    1.596037448191e-03
     2    2.710052137477e-03
     3   -1.255501223921e-02
     4    1.812933466060e-02
     5    5.819264056980e-15
     6   -8.495950692603e-03
     7   -1.488412345762e-02
     8    2.846103651946e-02
     9    1.802670552505e-15
    10   -6.700126681465e-02
    11   -3.476908561173e-02
    12    7.705466778208e-02
    13   -3.694387315676e-14
    14    2.632903220877e+00
    15    4.341976752650e-01
    16    1.059017261676e+00
    17    5.279838581504e-13
    18    6.163636640939e-03
    19    9.589595187554e-15
    20   -3.371808766404e-15
    21   -5.196514919930e-03
    22   -3.095402817009e-04
    23    1.284960830945e-03
    24    1.857692975907e-02
    25    3.854256718529e-01
    26    9.455239091947e-01
    27   -1.457623938330e-02
    28   -4.688170118253e-03
    29   -1.106371875178e-14
    30   -5.803239565490e-03
    31   -3.673453087736e-03
    32    9.128328038271e-02
    33    5.522771757792e-01
    34   -3.058449432624e-03
    35   -1.679001989501e-03
    36    1.687635274713e-15
    37   -6.217306941870e-04
    38    2.521354891028e-03
    39    1.799678198522e-01
    40    3.941967733295e-01
    41   -1.893771893754e-03
    42    8.361050566596e-03
    43   -6.269200833585e-15
    44   -3.660656908306e-03
    45   -5.492713243945e-03
    46   -5.821421936674e-03
    47    1.593425936736e-03
    48    1.406524603839e-14
    49   -1.985876663795e-02
    50   -1.488873664319e-02
    51    7.949192488714e-03
    52    3.354835573167e-14
    53    2.539282191043e-01
    54   -1.159210822181e-01
    55    5.087772159547e-02
    56    3.909368313085e-14
    57    2.666953668937e-01
    58   -6.901755142457e-01
    59    4.039375062524e-01
    60   -5.029014595324e-13
    61    2.402301676142e-02
    62   -9.001168541643e-16
    63    4.834227459454e-15
    64   -3.861362590130e-04
    65   -6.944124209310e-03
    66    2.344704841362e-02
    67    4.069539987233e-02
    68    1.279961850262e-02
    69    7.352168119885e-03
    70   -2.110134244604e-14
    71   -1.410748551751e-01
    72    1.438224775983e-02
    73    1.131034936625e-02
    74   -1.424733876590e-14
    75   -2.746922663180e-01
    76   -3.118618714580e-02
    77    4.004887541114e-02
    78   -1.094423073348e-13
    79   -4.247099679260e-01
    80    7.872123618812e-02
    81   -7.824096181228e-02
    82    3.319540847460e-13
    83    3.912051136190e-03
    84    1.900669458471e-17
    85    6.779724310477e-16
    86   -8.920097156106e-04
    87    3.507738414872e-03
    88    7.492783740858e-04
    89    1.446758639023e-03
    90   -6.208777160472e-03
    91    1.231654138943e-02
    92   -1.297912129169e-14
    93   -8.602140754662e-03
    94   -9.255674340347e-03
    95    1.579792237914e-02
    96   -3.886503483990e-14
    97    1.221993201927e-03
    98    4.655263581585e-03
    99    4.822008511295e-03
   100   -6.434186499271e-14
   101    2.453058298654e+00
   102   -2.690141897080e-01
   103   -5.634043947249e-01
   104    6.697037740553e-13
   105    4.777930564016e-03
   106    6.682947680821e-15
   107   -4.563946492065e-15
   108    2.906001636084e-03
   109    8.722728067896e-05
   110    1.766324251512e-03
   111    3.056834709171e-03
   112    5.480811526310e-03
   113   -9.562610967953e-03
   114    2.401127736840e-14
   115   -1.070580992881e-02
   116    7.178158805219e-03
   117   -1.454640267774e-02
   118    1.229717420757e-14
   119   -3.212138314403e-03
   120    1.386829189208e-02
   121   -1.765974449188e-02
   122    1.172075679695e-13
   123   -1.064893652439e-01
   124    1.509864573600e-02
   125    2.349659127066e-02
   126   -2.953779252911e-13
   127    3.053957619512e-04
   128    7.602954859553e-16
   129   -5.772439248261e-16
   130    1.194825851619e-04
   131   -2.633558914347e-04
   132    1.489818830687e-02
   133    2.582967281115e-02
   134    2.013798988604e-02
   135   -1.007078713964e-02
   136    8.964770730264e-16
   137   -8.306440413689e-02
   138    3.193045573231e-02
   139   -1.377101400747e-02
   140   -2.912204586352e-15
   141   -1.771518839576e-01
   142    7.084002522882e-02
   143   -2.624237070424e-02
   144   -7.820300182090e-15
   145   -5.388296730262e-01
   146    4.957900281856e-02
   147   -2.139662290332e-01
   148    7.176690138661e-14
   149    4.133563577792e-03
   150   -4.710903158185e-15
   151   -1.170703529923e-15
   152   -8.048089868430e-04
   153   -8.971388301859e-04
   154    2.155772652335e-02
   155    3.724512410566e-02
   156    3.429740719961e-02
   157    2.798774108651e-03
   158    2.112977206229e-15
   159   -1.163487254912e-01
   160    5.373044193217e-02
   161    1.148957072492e-03
   162   -1.021453505038e-15
   163   -3.130775207844e-01
   164    9.023880980881e-02
   165   -1.028333681234e-02
   166    3.302467150490e-14
   167   -9.562686133746e-01
   168    3.851059703701e-01
   169    5.541913170903e-02
   170   -1.808288611928e-13
   171    4.283287931192e-03
   172    1.713472127769e-15
   173    2.890544594586e-15
   174    3.692306472759e-03
   175    1.223721253676e-03
   176    5.587908044586e-03
   177    9.437999608786e-03
   178    3.633721159858e-03
   179   -3.867633279982e-03
   180    1.498553237327e-14
   181   -2.486403610676e-02
   182    1.527790257097e-03
   183   -6.372846646306e-03
   184    1.446440233133e-14
   185   -9.537737459263e-02
   186    5.309377547616e-02
   187   -4.801818073238e-02
   188    9.302521705907e-14
   189   -4.612596886897e+00
   190    8.460499298094e-01
   191   -5.770214797140e-01
   192   -6.911298939617e-13
   193    2.828229154785e-03
   194    2.707011797502e-15
   195   -2.842959998632e-15
   196    4.233873909351e-03
   197   -4.743872216241e-03
   198    6.808357029245e-03
   199    5.057694445049e-03
   200    4.019844233269e-03
   201   -1.661980482544e-01
   202    1.566130786681e-03
   203   -4.739339528976e-04
   204   -1.367591709920e-15
Sym=X
Ene= 0.487621
Spin=Alpha
Occup=0
     1   -5.527465772262e-15
     2   -1.040968112409e-14
     3   -5.780350582743e-16
     4   -7.697160740520e-15
     5   -1.654071120748e-01
     6    5.176293104106e-14
     7   -2.206095214974e-14
     8    1.751607923791e-14
     9   -2.716165224670e-01
    10   -5.553319035033e-14
    11    1.595437558649e-13
    12   -1.454115991675e-13
    13   -4.968548528176e-01
    14   -1.139001955476e-11
    15   -2.454043459778e-13
    16   -5.606989886514e-12
    17   -6.709923203540e-01
    18    2.862291148489e-15
    19    1.029399354417e-02
    20    1.203970942270e-02
    21   -9.455789964534e-15
    22    4.463373271071e-15
    23   -1.983319184684e-15
    24    2.230000647583e-14
    25   -8.201185896670e-14
    26    1.906519741790e-12
    27   -7.452410911739e-15
    28   -8.103616808303e-15
    29    1.367218116119e-02
    30    5.985489730188e-15
    31    6.157423131705e-14
    32   -3.461578618966e-13
    33   -3.639211858634e-12
    34   -3.581154345552e-15
    35    5.647134091275e-15
    36   -2.031300901858e-02
    37   -3.598237213162e-15
    38   -1.466593910482e-14
    39   -3.099638176575e-13
    40   -2.235873176021e-12
    41    6.689551613683e-15
    42    7.031601864899e-15
    43   -1.007121707084e-02
    44   -2.800078731259e-15
    45   -1.834574580710e-15
    46   -5.791008804788e-15
    47   -4.750521650994e-16
    48   -3.049879401985e-02
    49    8.246205510907e-15
    50   -8.912116254752e-15
    51   -7.720451153783e-15
    52   -5.598143473224e-02
    53    7.785212170002e-14
    54   -2.625134576779e-14
    55    1.635091272396e-13
    56   -7.299465079440e-02
    57    4.155042498703e-12
    58    1.480290028628e-12
    59    1.734576471817e-13
    60   -5.277228700841e-03
    61    7.856618128778e-15
    62   -1.557951094100e-02
    63   -3.605773523040e-02
    64   -2.465933095434e-15
    65   -5.023693164556e-17
    66    1.710220641702e-15
    67    4.139946686160e-15
    68   -6.565309245713e-16
    69    1.085304678942e-14
    70    1.490530991161e-02
    71   -1.651885210808e-14
    72    3.637495285036e-15
    73    1.456708877398e-14
    74    1.953143006284e-02
    75   -4.285296371786e-15
    76   -1.633723968663e-14
    77    2.714766671961e-14
    78    3.043613910258e-02
    79   -3.984687190151e-13
    80   -1.880927204646e-13
    81    1.733814805039e-14
    82   -1.992390159874e-02
    83   -1.709578216949e-15
    84   -3.350061688083e-03
    85   -1.312925356358e-03
    86    7.111568060931e-16
    87   -9.165459447105e-16
    88    1.613857044403e-15
    89    1.445280574345e-15
    90   -1.946968859758e-15
    91    1.997378479636e-15
    92    1.362221837915e-01
    93   -3.244467712564e-14
    94    1.987684748894e-14
    95    1.387237905009e-14
    96    2.226839239777e-01
    97    1.226885406012e-13
    98   -1.544388939135e-13
    99   -8.702033925941e-14
   100    3.818771311717e-01
   101   -1.059855297665e-11
   102   -2.558291474661e-13
   103    2.999282039891e-12
   104    8.829410532674e-02
   105    2.995195382506e-15
   106   -2.708165519362e-02
   107   -3.204287297780e-02
   108   -6.941821202556e-15
   109    1.124497656151e-15
   110    1.263247524329e-16
   111    2.244137343957e-15
   112   -2.108428789592e-15
   113    4.753157199012e-15
   114   -1.103812141104e-01
   115   -9.311985524113e-15
   116    4.298853114439e-15
   117    5.796123040229e-15
   118   -1.632415038629e-01
   119    8.159004565478e-15
   120   -2.490453088982e-14
   121    3.055436666015e-14
   122   -2.237198249592e-01
   123    5.072554211848e-13
   124    6.591879306170e-14
   125   -2.131832097243e-13
   126   -1.953976194174e-01
   127    1.722088365375e-15
   128   -2.498701934668e-03
   129   -3.918081295011e-03
   130    1.689066581027e-15
   131    1.106090818142e-15
   132   -1.512748677061e-15
   133   -7.139264076288e-16
   134   -3.973004350898e-16
   135    1.779149928570e-14
   136   -4.734177975890e-02
   137   -1.055774980526e-14
   138    4.637208380048e-15
   139    4.033063023718e-14
   140   -7.190491900857e-02
   141    1.450130877951e-13
   142   -4.152323385692e-15
   143    9.332824554727e-15
   144   -1.174622750961e-01
   145   -2.425651743400e-12
   146    3.436704757923e-13
   147    1.153196013969e-12
   148   -1.757496912123e-01
   149   -8.238746516930e-15
   150    1.927361345578e-02
   151   -9.645054983899e-03
   152    1.838989785837e-15
   153   -3.187459578941e-15
   154    3.487404746856e-15
   155    8.185742708434e-15
   156    3.063100481481e-15
   157    2.938631892652e-15
   158    8.717632908068e-02
   159   -2.634971613751e-14
   160    1.514444403175e-14
   161    3.457996567831e-16
   162    1.346184598184e-01
   163    2.457809537911e-14
   164    1.657340301881e-15
   165    4.512930320437e-14
   166    2.194517422447e-01
   167    2.917450333342e-12
   168    8.528420664338e-13
   169    1.959500975719e-13
   170    3.979343666627e-01
   171   -6.367204634371e-15
   172   -1.889065037301e-02
   173    1.326497837353e-02
   174    3.544531705324e-15
   175    4.524498762686e-16
   176    2.515609739773e-15
   177    7.193103939396e-16
   178    3.638113868779e-15
   179    7.219633503457e-15
   180    8.045453401899e-02
   181   -7.171766172397e-15
   182   -1.768046484427e-15
   183    5.569220425648e-16
   184    1.275931021539e-01
   185   -2.174526021126e-13
   186    1.048525879258e-14
   187    3.457958338451e-14
   188    2.584063425007e-01
   189    1.607808228491e-11
   190   -4.715561807833e-12
   191    5.354306193900e-12
   192    3.870583910731e-01
   193    2.728307971717e-15
   194    1.831071838797e-02
   195    3.434653517131e-02
   196    2.485638427497e-15
   197    3.246858947147e-15
   198    2.886430900940e-15
   199   -4.667549452395e-14
   200    5.863148185180e-13
   201    5.180467040697e-12
   202    1.363843553574e-15
   203    3.111438037423e-15
   204    7.078429041568e-03
[5D]
