[Molden Format]
[Atoms] (Angs)
  C      1    6     -0.00714236     -1.70213747     -0.00000000
  H      2    1     -2.06882847     -1.44022412      0.00000000
  H      3    1     -0.12337987     -2.77567521      0.00000000
  H      4    1      0.04651892      1.98813947     -0.00000000
  C      5    6     -1.21953563      0.40211669      0.00000000
  O      6    8     -2.25921553      1.03043814      0.00000000
  C      7    6      1.28797806      0.34644937     -0.00000000
  O      8    8      2.31273661      1.00537216     -0.00000000
  N      9    7      0.03446295      0.97739857     -0.00000000
  N     10    7     -1.17287765     -0.98229824      0.00000000
  C     11    6      1.20107039     -1.10433419     -0.00000000
  H     12    1      2.11220096     -1.67699125     -0.00000000
[GTO]
1    0
S    6    1.000000
   4.56324000E+03    1.96665000E-03 
   6.82024000E+02    1.52306000E-02 
   1.54973000E+02    7.61269000E-02 
   4.44553000E+01    2.60801000E-01 
   1.30290000E+01    6.16462000E-01 
   1.82773000E+00    2.21006000E-01 
SP   3    1.000000
   2.09642000E+01    1.14660000E-01   4.02487000E-02 
   4.80331000E+00    9.19999000E-01   2.37594000E-01 
   1.45933000E+00   -3.03068000E-03   8.15854000E-01 
SP   1    1.000000
   4.83456000E-01    1.00000000E+00   1.00000000E+00 
SP   1    1.000000
   1.45585000E-01    1.00000000E+00   1.00000000E+00 
SP   1    1.000000
   4.38000000E-02    1.00000000E+00   1.00000000E+00 
D    1    1.000000
   6.26000000E-01    1.00000000E+00 

2    0
S    3    1.000000
   3.38650000E+01    2.54938000E-02 
   5.09479000E+00    1.90373000E-01 
   1.15879000E+00    8.52161000E-01 
S    1    1.000000
   3.25840000E-01    1.00000000E+00 
S    1    1.000000
   1.02741000E-01    1.00000000E+00 
S    1    1.000000
   3.60000000E-02    1.00000000E+00 
P    1    1.000000
   7.50000000E-01    1.00000000E+00 

3    0
S    3    1.000000
   3.38650000E+01    2.54938000E-02 
   5.09479000E+00    1.90373000E-01 
   1.15879000E+00    8.52161000E-01 
S    1    1.000000
   3.25840000E-01    1.00000000E+00 
S    1    1.000000
   1.02741000E-01    1.00000000E+00 
S    1    1.000000
   3.60000000E-02    1.00000000E+00 
P    1    1.000000
   7.50000000E-01    1.00000000E+00 

4    0
S    3    1.000000
   3.38650000E+01    2.54938000E-02 
   5.09479000E+00    1.90373000E-01 
   1.15879000E+00    8.52161000E-01 
S    1    1.000000
   3.25840000E-01    1.00000000E+00 
S    1    1.000000
   1.02741000E-01    1.00000000E+00 
S    1    1.000000
   3.60000000E-02    1.00000000E+00 
P    1    1.000000
   7.50000000E-01    1.00000000E+00 

5    0
S    6    1.000000
   4.56324000E+03    1.96665000E-03 
   6.82024000E+02    1.52306000E-02 
   1.54973000E+02    7.61269000E-02 
   4.44553000E+01    2.60801000E-01 
   1.30290000E+01    6.16462000E-01 
   1.82773000E+00    2.21006000E-01 
SP   3    1.000000
   2.09642000E+01    1.14660000E-01   4.02487000E-02 
   4.80331000E+00    9.19999000E-01   2.37594000E-01 
   1.45933000E+00   -3.03068000E-03   8.15854000E-01 
SP   1    1.000000
   4.83456000E-01    1.00000000E+00   1.00000000E+00 
SP   1    1.000000
   1.45585000E-01    1.00000000E+00   1.00000000E+00 
SP   1    1.000000
   4.38000000E-02    1.00000000E+00   1.00000000E+00 
D    1    1.000000
   6.26000000E-01    1.00000000E+00 

6    0
S    6    1.000000
   8.58850000E+03    1.89515000E-03 
   1.29723000E+03    1.43859000E-02 
   2.99296000E+02    7.07320000E-02 
   8.73771000E+01    2.40001000E-01 
   2.56789000E+01    5.94797000E-01 
   3.74004000E+00    2.80802000E-01 
SP   3    1.000000
   4.21175000E+01    1.13889000E-01   3.65114000E-02 
   9.62837000E+00    9.20811000E-01   2.37153000E-01 
   2.85332000E+00   -3.27447000E-03   8.19702000E-01 
SP   1    1.000000
   9.05661000E-01    1.00000000E+00   1.00000000E+00 
SP   1    1.000000
   2.55611000E-01    1.00000000E+00   1.00000000E+00 
SP   1    1.000000
   8.45000000E-02    1.00000000E+00   1.00000000E+00 
D    1    1.000000
   1.29200000E+00    1.00000000E+00 

7    0
S    6    1.000000
   4.56324000E+03    1.96665000E-03 
   6.82024000E+02    1.52306000E-02 
   1.54973000E+02    7.61269000E-02 
   4.44553000E+01    2.60801000E-01 
   1.30290000E+01    6.16462000E-01 
   1.82773000E+00    2.21006000E-01 
SP   3    1.000000
   2.09642000E+01    1.14660000E-01   4.02487000E-02 
   4.80331000E+00    9.19999000E-01   2.37594000E-01 
   1.45933000E+00   -3.03068000E-03   8.15854000E-01 
SP   1    1.000000
   4.83456000E-01    1.00000000E+00   1.00000000E+00 
SP   1    1.000000
   1.45585000E-01    1.00000000E+00   1.00000000E+00 
SP   1    1.000000
   4.38000000E-02    1.00000000E+00   1.00000000E+00 
D    1    1.000000
   6.26000000E-01    1.00000000E+00 

8    0
S    6    1.000000
   8.58850000E+03    1.89515000E-03 
   1.29723000E+03    1.43859000E-02 
   2.99296000E+02    7.07320000E-02 
   8.73771000E+01    2.40001000E-01 
   2.56789000E+01    5.94797000E-01 
   3.74004000E+00    2.80802000E-01 
SP   3    1.000000
   4.21175000E+01    1.13889000E-01   3.65114000E-02 
   9.62837000E+00    9.20811000E-01   2.37153000E-01 
   2.85332000E+00   -3.27447000E-03   8.19702000E-01 
SP   1    1.000000
   9.05661000E-01    1.00000000E+00   1.00000000E+00 
SP   1    1.000000
   2.55611000E-01    1.00000000E+00   1.00000000E+00 
SP   1    1.000000
   8.45000000E-02    1.00000000E+00   1.00000000E+00 
D    1    1.000000
   1.29200000E+00    1.00000000E+00 

9    0
S    6    1.000000
   6.29348000E+03    1.96979000E-03 
   9.49044000E+02    1.49613000E-02 
   2.18776000E+02    7.35006000E-02 
   6.36916000E+01    2.48937000E-01 
   1.88282000E+01    6.02460000E-01 
   2.72023000E+00    2.56202000E-01 
SP   3    1.000000
   3.06331000E+01    1.11906000E-01   3.83119000E-02 
   7.02614000E+00    9.21666000E-01   2.37403000E-01 
   2.11205000E+00   -2.56919000E-03   8.17592000E-01 
SP   1    1.000000
   6.84009000E-01    1.00000000E+00   1.00000000E+00 
SP   1    1.000000
   2.00878000E-01    1.00000000E+00   1.00000000E+00 
SP   1    1.000000
   6.39000000E-02    1.00000000E+00   1.00000000E+00 
D    1    1.000000
   9.13000000E-01    1.00000000E+00 

10    0
S    6    1.000000
   6.29348000E+03    1.96979000E-03 
   9.49044000E+02    1.49613000E-02 
   2.18776000E+02    7.35006000E-02 
   6.36916000E+01    2.48937000E-01 
   1.88282000E+01    6.02460000E-01 
   2.72023000E+00    2.56202000E-01 
SP   3    1.000000
   3.06331000E+01    1.11906000E-01   3.83119000E-02 
   7.02614000E+00    9.21666000E-01   2.37403000E-01 
   2.11205000E+00   -2.56919000E-03   8.17592000E-01 
SP   1    1.000000
   6.84009000E-01    1.00000000E+00   1.00000000E+00 
SP   1    1.000000
   2.00878000E-01    1.00000000E+00   1.00000000E+00 
SP   1    1.000000
   6.39000000E-02    1.00000000E+00   1.00000000E+00 
D    1    1.000000
   9.13000000E-01    1.00000000E+00 

11    0
S    6    1.000000
   4.56324000E+03    1.96665000E-03 
   6.82024000E+02    1.52306000E-02 
   1.54973000E+02    7.61269000E-02 
   4.44553000E+01    2.60801000E-01 
   1.30290000E+01    6.16462000E-01 
   1.82773000E+00    2.21006000E-01 
SP   3    1.000000
   2.09642000E+01    1.14660000E-01   4.02487000E-02 
   4.80331000E+00    9.19999000E-01   2.37594000E-01 
   1.45933000E+00   -3.03068000E-03   8.15854000E-01 
SP   1    1.000000
   4.83456000E-01    1.00000000E+00   1.00000000E+00 
SP   1    1.000000
   1.45585000E-01    1.00000000E+00   1.00000000E+00 
SP   1    1.000000
   4.38000000E-02    1.00000000E+00   1.00000000E+00 
D    1    1.000000
   6.26000000E-01    1.00000000E+00 

12    0
S    3    1.000000
   3.38650000E+01    2.54938000E-02 
   5.09479000E+00    1.90373000E-01 
   1.15879000E+00    8.52161000E-01 
S    1    1.000000
   3.25840000E-01    1.00000000E+00 
S    1    1.000000
   1.02741000E-01    1.00000000E+00 
S    1    1.000000
   3.60000000E-02    1.00000000E+00 
P    1    1.000000
   7.50000000E-01    1.00000000E+00 

[MO]
Sym=X
Ene= -0.488016
Spin=Alpha
Occup=1
     1   -5.817273745688e-15
     2   -1.098535851458e-14
     3   -6.634096142202e-16
     4   -8.068189660498e-15
     5   -1.571329263695e-01
     6    5.566477603095e-14
     7   -2.256709255569e-14
     8    1.854161107231e-14
     9   -2.574360639480e-01
    10   -4.291599134503e-14
    11    1.485951835044e-13
    12   -1.440915827320e-13
    13   -5.036200919220e-01
    14   -1.092723339165e-11
    15   -7.716022363460e-14
    16   -5.458384034620e-12
    17   -6.710159075816e-01
    18    1.839390713618e-15
    19    9.641919591024e-03
    20    1.231342019691e-02
    21   -8.943507356174e-15
    22    3.817593815259e-15
    23   -2.892763648324e-15
    24    4.189539867480e-15
    25   -1.153811850107e-13
    26    1.895349108327e-12
    27   -7.316102483706e-15
    28   -6.531049417004e-15
    29    1.430926593338e-02
    30    5.360840168970e-15
    31    5.053674639740e-14
    32   -3.112165024862e-13
    33   -3.535451692414e-12
    34   -4.368804301925e-15
    35    6.153836478691e-15
    36   -1.985931234818e-02
    37   -3.164582092691e-15
    38    1.295606041802e-14
    39   -2.996840212020e-13
    40   -2.237431712634e-12
    41    6.152097287712e-15
    42    3.975065154343e-15
    43   -1.062053297869e-02
    44   -2.029170479660e-15
    45   -2.977731780892e-16
    46   -4.930444905711e-15
    47    5.119346628769e-16
    48   -2.972132001108e-02
    49   -3.679421547841e-15
    50   -7.496186439199e-15
    51   -8.959452104786e-15
    52   -5.468717560880e-02
    53    1.320617121985e-13
    54   -5.820570811749e-16
    55    2.302448436715e-13
    56   -7.676259275890e-02
    57    4.155911497596e-12
    58    1.489176482329e-12
    59    1.997883037505e-13
    60   -2.489721076603e-02
    61    6.595379134593e-15
    62   -1.629214911223e-02
    63   -3.691159910581e-02
    64   -3.342649861979e-15
    65    5.529940518787e-17
    66    1.615913203391e-15
    67    3.856726954961e-15
    68   -3.781905850410e-16
    69    1.003340848861e-14
    70    1.809521744425e-02
    71   -1.484535159003e-14
    72    5.018220551563e-15
    73    1.460911506336e-14
    74    2.412009163485e-02
    75   -1.630451174673e-14
    76   -2.772198425423e-14
    77    1.590300934114e-14
    78    3.282838521813e-02
    79   -4.173593227711e-13
    80   -1.862803046415e-13
    81    2.893816810629e-14
    82   -1.605173199535e-02
    83   -1.711344198670e-15
    84   -3.334610241741e-03
    85   -1.524849183911e-03
    86    6.856666953547e-16
    87   -7.283957809623e-16
    88    1.291334277726e-15
    89    7.267504948464e-16
    90   -1.578612064203e-15
    91    2.146195650912e-15
    92    1.283997069643e-01
    93   -2.227412551560e-14
    94    2.701632903114e-14
    95    1.011132008458e-14
    96    2.096582732081e-01
    97    1.601183557406e-14
    98   -1.267928976369e-13
    99   -7.282557373971e-14
   100    3.831084155203e-01
   101   -1.097222591112e-11
   102   -2.219007500102e-13
   103    3.100625142134e-12
   104    8.075851723621e-02
   105    3.331634220100e-15
   106   -2.814790699205e-02
   107   -3.330545914754e-02
   108   -8.549362215977e-15
   109    1.445435930216e-15
   110    1.581831212725e-16
   111    2.267250889543e-15
   112   -2.011795758868e-15
   113    5.291461659327e-15
   114   -1.175063233049e-01
   115   -9.434035824779e-15
   116    3.964167083223e-15
   117    6.385470040526e-15
   118   -1.759548327793e-01
   119    5.430931279586e-15
   120   -2.115130263028e-14
   121    2.815241598723e-14
   122   -2.451556756569e-01
   123    5.217418063431e-13
   124    4.754665576643e-14
   125   -2.295495633266e-13
   126   -2.015385920633e-01
   127    1.936206460160e-15
   128   -1.354882369131e-03
   129   -3.290256975323e-03
   130    1.546023645222e-15
   131    4.592997552065e-16
   132   -1.940210377246e-15
   133   -9.734891710396e-16
   134    2.880688898155e-16
   135    1.711426190147e-14
   136   -5.014588600203e-02
   137   -9.847376032059e-15
   138    2.662908759551e-15
   139    4.303855299586e-14
   140   -7.674601870203e-02
   141    1.103402456148e-13
   142    4.013816067708e-14
   143   -3.953334119444e-14
   144   -1.274987536614e-01
   145   -2.353260059911e-12
   146    3.746031161596e-13
   147    1.098667392290e-12
   148   -1.666648495879e-01
   149   -6.607718672674e-15
   150    1.860295015737e-02
   151   -9.505303284477e-03
   152    2.665688564564e-15
   153   -3.258452043685e-15
   154    3.262875083060e-15
   155    7.826529867209e-15
   156    2.882015525014e-15
   157    4.455154781348e-15
   158    9.074115032045e-02
   159   -2.572897112057e-14
   160    1.970160428143e-14
   161    4.109595068924e-15
   162    1.414501356642e-01
   163    5.755877276728e-14
   164   -3.920550416807e-14
   165    4.647037601106e-14
   166    2.356666340532e-01
   167    2.876130342954e-12
   168    7.566128285442e-13
   169    1.609642898471e-13
   170    4.069676404273e-01
   171   -5.470324604763e-15
   172   -1.817904614800e-02
   173    1.289511627058e-02
   174    3.202206636211e-15
   175    1.020851019951e-15
   176    1.966877034432e-15
   177   -2.405753251682e-16
   178    3.177691255824e-15
   179    7.422023238769e-15
   180    8.088545710520e-02
   181    1.360878243884e-15
   182    3.152171904427e-15
   183    7.061041044231e-16
   184    1.277497973936e-01
   185   -2.103643159311e-13
   186   -2.765032493789e-14
   187    5.873449941048e-14
   188    2.702094213392e-01
   189    1.586133025254e-11
   190   -4.619230311517e-12
   191    5.504321957471e-12
   192    3.885037472083e-01
   193    2.614096789020e-15
   194    1.700096421936e-02
   195    3.283997448492e-02
   196    2.308508392112e-15
   197    4.137761483713e-15
   198    2.465314171847e-15
   199   -3.658050236304e-14
   200    6.231122944829e-13
   201    5.172788308543e-12
   202    7.950530168864e-16
   203    3.740609309996e-15
   204    7.245240637014e-03
Sym=X
Ene= 0.488016
Spin=Alpha
Occup=0
     1   -9.956028831667e-16
     2    5.289990196863e-16
     3   -3.949885567196e-15
     4   -1.568258455364e-14
     5   -7.574117731256e-02
     6    3.635873461628e-14
     7   -4.942901744639e-14
     8   -4.457523549509e-14
     9   -8.048233904507e-02
    10   -3.925622806273e-13
    11   -7.487746321272e-14
    12   -1.292104218784e-13
    13   -3.733878475697e-01
    14   -7.507217506537e-12
    15   -1.574376622427e-12
    16    1.495724786479e-12
    17    1.690508422755e+00
    18    1.576859243875e-14
    19   -2.415096963282e-03
    20   -1.675872357724e-02
    21    2.461919494300e-15
    22   -1.889800240590e-14
    23    6.018272019088e-15
    24   -1.195944526716e-13
    25   -4.392009544343e-14
    26    1.684259658665e-12
    27   -7.923491706190e-15
    28    3.282028854638e-15
    29    5.608482649289e-03
    30   -2.715625657551e-15
    31   -8.347880102588e-14
    32    4.104849206836e-13
    33    1.082934886692e-12
    34    1.367450825650e-14
    35    4.861014840763e-15
    36    7.697739706528e-03
    37    1.800612700698e-14
    38    7.278854583250e-14
    39    8.821334203191e-13
    40   -2.163835329456e-12
    41   -9.069820140838e-15
    42    3.116053760387e-15
    43   -7.203588204920e-03
    44   -1.141988401808e-15
    45   -1.622825502435e-15
    46    1.373909339130e-14
    47   -6.517509776747e-15
    48    2.388725159176e-02
    49   -1.798600440121e-14
    50   -4.054577456187e-14
    51   -3.733638553640e-15
    52    2.720935530485e-02
    53   -4.875646991317e-14
    54    4.584948882072e-13
    55    1.615748037260e-13
    56    1.139702116995e-01
    57   -1.582804727893e-12
    58    1.545562406176e-12
    59    3.965687083949e-12
    60   -9.310744230336e-01
    61   -5.841734590247e-16
    62   -6.954093315080e-03
    63   -1.512580404625e-03
    64    1.158912745491e-14
    65   -1.089502558169e-15
    66    3.131499526449e-15
    67    5.173810487558e-15
    68    7.357441341148e-16
    69   -4.552557079133e-15
    70    2.926915388644e-02
    71   -1.410431964079e-14
    72   -1.755374316836e-14
    73   -6.054976723287e-15
    74    4.038581011332e-02
    75   -3.990774427484e-14
    76    2.378708076345e-14
    77    5.493868802728e-15
    78    3.825406361727e-02
    79    5.393928395805e-13
    80   -1.941895904106e-14
    81   -6.628400282682e-13
    82   -6.920218787031e-02
    83    6.525287397995e-15
    84    3.591560523925e-03
    85   -4.483811135154e-03
    86   -1.796370221678e-15
    87    3.673853311555e-15
    88   -5.031866398980e-15
    89   -8.172506618529e-15
    90    6.886916695898e-15
    91    2.635129388557e-15
    92    2.659006440658e-02
    93    5.834846260785e-14
    94    1.393167110554e-15
    95    2.634037950386e-14
    96    4.151220083262e-02
    97   -1.473333094333e-13
    98    2.542624557069e-13
    99    5.303243383720e-13
   100    1.104280070970e-01
   101   -1.945352378185e-12
   102    7.916456239925e-13
   103    1.703848038942e-12
   104    3.822748431132e-01
   105    1.135455182260e-14
   106   -5.543777951646e-03
   107   -1.722351544887e-04
   108    1.803811693284e-14
   109   -2.790242128052e-15
   110    1.865928605255e-16
   111   -3.558110955495e-15
   112    1.255218560916e-14
   113   -1.863812289800e-14
   114   -2.002021001715e-02
   115    2.137653013476e-14
   116   -3.611849505008e-16
   117   -8.815294462276e-15
   118   -2.989849524217e-02
   119   -1.456178067507e-13
   120    9.260280669410e-14
   121   -4.248593775226e-14
   122   -4.254695900154e-02
   123   -2.965609505822e-13
   124    1.607900477848e-13
   125    8.647946867393e-14
   126   -8.409072274529e-02
   127   -3.601180029349e-15
   128   -4.846390945705e-04
   129   -1.074318626015e-03
   130   -2.604379793321e-15
   131    3.850624623739e-15
   132    2.541304053438e-15
   133    3.011212210234e-15
   134    7.635984262151e-15
   135   -1.172146793043e-14
   136    6.007659149951e-03
   137    1.015082070471e-14
   138    6.786564603948e-16
   139    1.213593253714e-14
   140    7.740833248293e-03
   141   -2.149488428773e-13
   142    1.384973449786e-13
   143   -2.479963172518e-13
   144    1.955238165865e-02
   145   -3.260042456908e-12
   146    1.622573001630e-13
   147   -3.640132249800e-13
   148   -2.271702464442e-01
   149   -8.243537247033e-16
   150    3.238894498805e-03
   151   -6.215604862623e-03
   152   -1.313915952652e-15
   153    1.182226813864e-15
   154    2.092596060355e-15
   155    2.072359129191e-15
   156    8.091883933784e-15
   157   -9.383242955396e-15
   158   -1.645368699144e-02
   159   -8.551256372748e-15
   160    1.823169694840e-14
   161   -1.306522189964e-14
   162   -2.807012169769e-02
   163    9.721897427280e-15
   164   -1.201670457928e-13
   165   -5.731570180507e-14
   166   -2.438223667647e-02
   167    2.203282000535e-12
   168   -3.801865294118e-13
   169    4.116908938420e-13
   170    1.653658257332e-01
   171   -2.004220702023e-15
   172   -8.137573329191e-03
   173    8.227211356265e-04
   174    3.254732646465e-15
   175   -4.014127948992e-15
   176   -7.438266664296e-15
   177   -3.361099711387e-15
   178    3.296488724673e-14
   179   -1.497791213047e-14
   180   -3.893848713810e-02
   181   -4.003895564866e-14
   182   -3.668250168639e-16
   183   -7.450408697329e-15
   184   -4.308682725330e-02
   185    1.015786610005e-12
   186    8.518772082149e-14
   187    2.157718530783e-13
   188   -1.372920688919e-01
   189    9.891121957160e-12
   190   -3.146994555593e-12
   191   -1.395799214971e-12
   192   -4.743403046792e-01
   193   -2.636753695786e-14
   194    1.103463686152e-02
   195    2.069135181474e-03
   196   -9.749460215314e-15
   197    9.130891125066e-15
   198   -9.485869514584e-15
   199   -3.656281057589e-14
   200   -6.223960276112e-13
   201    7.020854938860e-13
   202   -4.106732486733e-16
   203   -2.152044284530e-15
   204    2.173672373085e-03
[5D]
