[Molden Format]
[Atoms] (Angs)
  C      1    6     -0.00714236     -1.70213747     -0.00000000
  H      2    1     -2.06882847     -1.44022412      0.00000000
  H      3    1     -0.12337987     -2.77567521      0.00000000
  H      4    1      0.04651892      1.98813947     -0.00000000
  C      5    6     -1.21953563      0.40211669      0.00000000
  O      6    8     -2.25921553      1.03043814      0.00000000
  C      7    6      1.28797806      0.34644937     -0.00000000
  O      8    8      2.31273661      1.00537216     -0.00000000
  N      9    7      0.03446295      0.97739857     -0.00000000
  N     10    7     -1.17287765     -0.98229824      0.00000000
  C     11    6      1.20107039     -1.10433419     -0.00000000
  H     12    1      2.11220096     -1.67699125     -0.00000000
[GTO]
1    0
S    6    1.000000
   4.56324000E+03    1.96665000E-03 
   6.82024000E+02    1.52306000E-02 
   1.54973000E+02    7.61269000E-02 
   4.44553000E+01    2.60801000E-01 
   1.30290000E+01    6.16462000E-01 
   1.82773000E+00    2.21006000E-01 
SP   3    1.000000
   2.09642000E+01    1.14660000E-01   4.02487000E-02 
   4.80331000E+00    9.19999000E-01   2.37594000E-01 
   1.45933000E+00   -3.03068000E-03   8.15854000E-01 
SP   1    1.000000
   4.83456000E-01    1.00000000E+00   1.00000000E+00 
SP   1    1.000000
   1.45585000E-01    1.00000000E+00   1.00000000E+00 
SP   1    1.000000
   4.38000000E-02    1.00000000E+00   1.00000000E+00 
D    1    1.000000
   6.26000000E-01    1.00000000E+00 

2    0
S    3    1.000000
   3.38650000E+01    2.54938000E-02 
   5.09479000E+00    1.90373000E-01 
   1.15879000E+00    8.52161000E-01 
S    1    1.000000
   3.25840000E-01    1.00000000E+00 
S    1    1.000000
   1.02741000E-01    1.00000000E+00 
S    1    1.000000
   3.60000000E-02    1.00000000E+00 
P    1    1.000000
   7.50000000E-01    1.00000000E+00 

3    0
S    3    1.000000
   3.38650000E+01    2.54938000E-02 
   5.09479000E+00    1.90373000E-01 
   1.15879000E+00    8.52161000E-01 
S    1    1.000000
   3.25840000E-01    1.00000000E+00 
S    1    1.000000
   1.02741000E-01    1.00000000E+00 
S    1    1.000000
   3.60000000E-02    1.00000000E+00 
P    1    1.000000
   7.50000000E-01    1.00000000E+00 

4    0
S    3    1.000000
   3.38650000E+01    2.54938000E-02 
   5.09479000E+00    1.90373000E-01 
   1.15879000E+00    8.52161000E-01 
S    1    1.000000
   3.25840000E-01    1.00000000E+00 
S    1    1.000000
   1.02741000E-01    1.00000000E+00 
S    1    1.000000
   3.60000000E-02    1.00000000E+00 
P    1    1.000000
   7.50000000E-01    1.00000000E+00 

5    0
S    6    1.000000
   4.56324000E+03    1.96665000E-03 
   6.82024000E+02    1.52306000E-02 
   1.54973000E+02    7.61269000E-02 
   4.44553000E+01    2.60801000E-01 
   1.30290000E+01    6.16462000E-01 
   1.82773000E+00    2.21006000E-01 
SP   3    1.000000
   2.09642000E+01    1.14660000E-01   4.02487000E-02 
   4.80331000E+00    9.19999000E-01   2.37594000E-01 
   1.45933000E+00   -3.03068000E-03   8.15854000E-01 
SP   1    1.000000
   4.83456000E-01    1.00000000E+00   1.00000000E+00 
SP   1    1.000000
   1.45585000E-01    1.00000000E+00   1.00000000E+00 
SP   1    1.000000
   4.38000000E-02    1.00000000E+00   1.00000000E+00 
D    1    1.000000
   6.26000000E-01    1.00000000E+00 

6    0
S    6    1.000000
   8.58850000E+03    1.89515000E-03 
   1.29723000E+03    1.43859000E-02 
   2.99296000E+02    7.07320000E-02 
   8.73771000E+01    2.40001000E-01 
   2.56789000E+01    5.94797000E-01 
   3.74004000E+00    2.80802000E-01 
SP   3    1.000000
   4.21175000E+01    1.13889000E-01   3.65114000E-02 
   9.62837000E+00    9.20811000E-01   2.37153000E-01 
   2.85332000E+00   -3.27447000E-03   8.19702000E-01 
SP   1    1.000000
   9.05661000E-01    1.00000000E+00   1.00000000E+00 
SP   1    1.000000
   2.55611000E-01    1.00000000E+00   1.00000000E+00 
SP   1    1.000000
   8.45000000E-02    1.00000000E+00   1.00000000E+00 
D    1    1.000000
   1.29200000E+00    1.00000000E+00 

7    0
S    6    1.000000
   4.56324000E+03    1.96665000E-03 
   6.82024000E+02    1.52306000E-02 
   1.54973000E+02    7.61269000E-02 
   4.44553000E+01    2.60801000E-01 
   1.30290000E+01    6.16462000E-01 
   1.82773000E+00    2.21006000E-01 
SP   3    1.000000
   2.09642000E+01    1.14660000E-01   4.02487000E-02 
   4.80331000E+00    9.19999000E-01   2.37594000E-01 
   1.45933000E+00   -3.03068000E-03   8.15854000E-01 
SP   1    1.000000
   4.83456000E-01    1.00000000E+00   1.00000000E+00 
SP   1    1.000000
   1.45585000E-01    1.00000000E+00   1.00000000E+00 
SP   1    1.000000
   4.38000000E-02    1.00000000E+00   1.00000000E+00 
D    1    1.000000
   6.26000000E-01    1.00000000E+00 

8    0
S    6    1.000000
   8.58850000E+03    1.89515000E-03 
   1.29723000E+03    1.43859000E-02 
   2.99296000E+02    7.07320000E-02 
   8.73771000E+01    2.40001000E-01 
   2.56789000E+01    5.94797000E-01 
   3.74004000E+00    2.80802000E-01 
SP   3    1.000000
   4.21175000E+01    1.13889000E-01   3.65114000E-02 
   9.62837000E+00    9.20811000E-01   2.37153000E-01 
   2.85332000E+00   -3.27447000E-03   8.19702000E-01 
SP   1    1.000000
   9.05661000E-01    1.00000000E+00   1.00000000E+00 
SP   1    1.000000
   2.55611000E-01    1.00000000E+00   1.00000000E+00 
SP   1    1.000000
   8.45000000E-02    1.00000000E+00   1.00000000E+00 
D    1    1.000000
   1.29200000E+00    1.00000000E+00 

9    0
S    6    1.000000
   6.29348000E+03    1.96979000E-03 
   9.49044000E+02    1.49613000E-02 
   2.18776000E+02    7.35006000E-02 
   6.36916000E+01    2.48937000E-01 
   1.88282000E+01    6.02460000E-01 
   2.72023000E+00    2.56202000E-01 
SP   3    1.000000
   3.06331000E+01    1.11906000E-01   3.83119000E-02 
   7.02614000E+00    9.21666000E-01   2.37403000E-01 
   2.11205000E+00   -2.56919000E-03   8.17592000E-01 
SP   1    1.000000
   6.84009000E-01    1.00000000E+00   1.00000000E+00 
SP   1    1.000000
   2.00878000E-01    1.00000000E+00   1.00000000E+00 
SP   1    1.000000
   6.39000000E-02    1.00000000E+00   1.00000000E+00 
D    1    1.000000
   9.13000000E-01    1.00000000E+00 

10    0
S    6    1.000000
   6.29348000E+03    1.96979000E-03 
   9.49044000E+02    1.49613000E-02 
   2.18776000E+02    7.35006000E-02 
   6.36916000E+01    2.48937000E-01 
   1.88282000E+01    6.02460000E-01 
   2.72023000E+00    2.56202000E-01 
SP   3    1.000000
   3.06331000E+01    1.11906000E-01   3.83119000E-02 
   7.02614000E+00    9.21666000E-01   2.37403000E-01 
   2.11205000E+00   -2.56919000E-03   8.17592000E-01 
SP   1    1.000000
   6.84009000E-01    1.00000000E+00   1.00000000E+00 
SP   1    1.000000
   2.00878000E-01    1.00000000E+00   1.00000000E+00 
SP   1    1.000000
   6.39000000E-02    1.00000000E+00   1.00000000E+00 
D    1    1.000000
   9.13000000E-01    1.00000000E+00 

11    0
S    6    1.000000
   4.56324000E+03    1.96665000E-03 
   6.82024000E+02    1.52306000E-02 
   1.54973000E+02    7.61269000E-02 
   4.44553000E+01    2.60801000E-01 
   1.30290000E+01    6.16462000E-01 
   1.82773000E+00    2.21006000E-01 
SP   3    1.000000
   2.09642000E+01    1.14660000E-01   4.02487000E-02 
   4.80331000E+00    9.19999000E-01   2.37594000E-01 
   1.45933000E+00   -3.03068000E-03   8.15854000E-01 
SP   1    1.000000
   4.83456000E-01    1.00000000E+00   1.00000000E+00 
SP   1    1.000000
   1.45585000E-01    1.00000000E+00   1.00000000E+00 
SP   1    1.000000
   4.38000000E-02    1.00000000E+00   1.00000000E+00 
D    1    1.000000
   6.26000000E-01    1.00000000E+00 

12    0
S    3    1.000000
   3.38650000E+01    2.54938000E-02 
   5.09479000E+00    1.90373000E-01 
   1.15879000E+00    8.52161000E-01 
S    1    1.000000
   3.25840000E-01    1.00000000E+00 
S    1    1.000000
   1.02741000E-01    1.00000000E+00 
S    1    1.000000
   3.60000000E-02    1.00000000E+00 
P    1    1.000000
   7.50000000E-01    1.00000000E+00 

[MO]
Sym=X
Ene= -0.022979
Spin=Alpha
Occup=1
     1    1.102698736929e-05
     2    2.069071236425e-05
     3   -1.437060783190e-05
     4    2.709159300110e-05
     5   -3.685803395052e-16
     6   -6.869561795539e-05
     7    2.426344701381e-05
     8    7.933929007027e-06
     9    1.545550232960e-15
    10   -4.037916999042e-04
    11    4.810337569841e-05
    12    1.903147641939e-04
    13   -1.555174164627e-15
    14    4.513953672214e-03
    15    9.889230153655e-04
    16    2.953432869547e-03
    17   -8.099498035254e-15
    18    1.501473423952e-06
    19    7.311839996793e-17
    20    1.206306609414e-16
    21   -1.002655886397e-06
    22    8.885634391998e-06
    23    8.480957651391e-06
    24    8.014316254239e-05
    25    4.038221810700e-04
    26    7.858286420686e-04
    27    3.219957193941e-06
    28   -1.361096489628e-05
    29   -6.067175632487e-17
    30   -7.900725646745e-06
    31    4.657390371619e-05
    32    3.347525367096e-04
    33    2.719299679011e-03
    34   -5.559882541933e-06
    35   -1.385863288224e-06
    36    6.859777027043e-16
    37    1.535608312433e-05
    38    9.533959543445e-05
    39    4.463619543733e-04
    40    1.027122943387e-03
    41    1.095759445429e-05
    42    2.680589092520e-06
    43    8.739552360623e-16
    44    5.139586338779e-06
    45   -7.205230693309e-05
    46   -6.375662963468e-05
    47    3.090445863948e-05
    48   -8.884158618749e-16
    49    2.752326360015e-04
    50   -3.405428711319e-04
    51    2.013585853332e-04
    52    4.134705565225e-15
    53    1.385297646322e-04
    54   -5.511205567124e-04
    55    3.500974135869e-04
    56   -4.523041208687e-15
    57   -1.115810489789e-03
    58    2.767525763507e-04
    59   -2.545041798959e-04
    60   -6.182520732357e-15
    61   -4.462132724805e-05
    62   -8.398301844885e-16
    63   -6.291706744881e-16
    64    9.224512340897e-05
    65   -1.807036848335e-04
    66    5.514215166249e-01
    67    4.717141106031e-01
    68    1.585213143452e-03
    69   -9.873349538762e-04
    70    1.874289185378e-16
    71    5.660117487334e-03
    72   -6.396133945100e-04
    73    4.142306255699e-04
    74   -3.261452511805e-16
    75   -1.622103101679e-03
    76    1.391306008691e-04
    77   -1.027511625261e-04
    78   -1.098450627275e-15
    79    1.714060958958e-03
    80    1.704094442336e-04
    81   -9.584434773873e-05
    82    2.050584664585e-15
    83   -1.098001778419e-04
    84   -3.062110361114e-16
    85    2.631940682934e-16
    86   -2.208856678029e-05
    87    2.139121818082e-05
    88    5.357524439882e-06
    89    1.168902642221e-05
    90   -1.708544063628e-05
    91    1.965698246178e-06
    92   -2.160811386403e-16
    93   -3.889141531940e-05
    94    3.671042213510e-06
    95   -2.035039268816e-05
    96    2.670418400713e-15
    97   -3.761647853754e-04
    98   -1.168067753001e-04
    99   -1.956930868936e-04
   100   -3.648546330007e-15
   101    5.063693781511e-03
   102   -1.496796957523e-03
   103   -1.398192600690e-03
   104   -1.808776276963e-14
   105   -2.533711278817e-06
   106   -3.493452675993e-17
   107    4.455901944677e-17
   108   -4.611843740114e-07
   109    1.008042649388e-05
   110   -2.363698414304e-05
   111   -3.185134595116e-05
   112    1.805807103988e-05
   113   -4.238332413515e-05
   114    1.470408080241e-15
   115    6.781903387668e-05
   116    2.587025640657e-05
   117   -5.214578269680e-05
   118   -1.190700076042e-15
   119    2.311496922994e-04
   120   -5.205143722375e-05
   121   -7.794721777540e-05
   122   -1.875862007635e-15
   123    3.225477329589e-04
   124    6.894956379113e-05
   125    6.230328656433e-05
   126    7.173037332096e-15
   127   -2.129459576951e-07
   128    4.865887531179e-16
   129    1.072103335546e-15
   130   -1.574892384044e-06
   131    1.254229837271e-06
   132    8.954628616115e-06
   133    1.772045067210e-05
   134    2.009082505625e-05
   135   -2.110854364763e-05
   136    4.581940470684e-16
   137   -8.371050325893e-05
   138   -8.862651471247e-06
   139   -2.461817006016e-05
   140    2.370688139908e-18
   141    1.668989494830e-04
   142    1.062564352835e-04
   143   -2.944400699714e-04
   144   -2.259998450124e-15
   145   -1.030781965415e-03
   146    6.112838936787e-04
   147   -3.779649462139e-04
   148    1.227643704390e-14
   149   -7.527386030095e-06
   150    2.162472521548e-16
   151   -7.248556508209e-16
   152    1.148533290472e-05
   153    7.056993825394e-06
   154    1.115305095547e-05
   155    2.126891118753e-05
   156    2.532419564821e-05
   157   -2.148657494845e-06
   158   -6.312610683860e-16
   159   -9.216218298108e-05
   160    2.136127694455e-05
   161    2.342500225248e-05
   162    9.061763636155e-17
   163    1.241986800427e-04
   164    2.956365146042e-04
   165    7.752536887084e-05
   166   -7.747486194065e-16
   167   -9.889106159470e-04
   168    6.277138917715e-04
   169   -4.775119742137e-04
   170    7.206991770061e-15
   171   -5.385971763839e-06
   172   -2.634518971641e-16
   173    2.749227691408e-16
   174   -1.509089184199e-05
   175   -3.201267036745e-06
   176   -4.123783422976e-06
   177   -7.833527861504e-06
   178    1.234740620322e-05
   179   -5.754794454724e-06
   180   -1.327115543136e-15
   181    3.362728322947e-05
   182    8.055850481904e-06
   183    5.081902234749e-06
   184    5.403281342003e-16
   185   -4.768337631355e-05
   186    1.934475750561e-04
   187   -1.489607312790e-04
   188   -6.591212029192e-16
   189   -9.376468120359e-03
   190    3.577157807299e-03
   191   -2.511203008603e-03
   192    1.528369091409e-14
   193    6.226658842023e-06
   194   -4.062287058325e-17
   195   -3.533408746612e-16
   196    5.958098458731e-07
   197   -1.433266664110e-05
   198    1.443305958023e-05
   199    2.532372377490e-05
   200   -3.555060903548e-04
   201   -3.049786636184e-03
   202   -3.563651079433e-06
   203   -1.202784488016e-06
   204    8.271215370233e-16
Sym=X
Ene= 0.022979
Spin=Alpha
Occup=0
     1    2.482990557249e-07
     2    4.932358276587e-07
     3   -3.303421115386e-06
     4   -5.713019046190e-07
     5   -5.273673815877e-16
     6   -5.596458599383e-06
     7    1.241250990525e-05
     8    1.327469349843e-06
     9    9.070972909158e-16
    10    5.787219153421e-04
    11    1.195657040707e-04
    12    2.353636320503e-04
    13   -5.644745825595e-15
    14   -2.661360858439e-04
    15   -3.082410027374e-04
    16    5.151323412748e-04
    17    2.185270433422e-14
    18    1.792926757148e-07
    19   -8.809968109058e-16
    20   -9.388896662891e-16
    21    5.524382356359e-06
    22   -3.155164789394e-06
    23    1.047350691381e-07
    24   -1.023646679701e-05
    25    4.487180776960e-05
    26   -8.966546911731e-05
    27    3.198854942733e-06
    28   -6.913783937376e-07
    29    6.479527155025e-16
    30    2.342798439499e-06
    31   -4.428938580851e-06
    32    1.111691331832e-04
    33    2.781043307946e-04
    34   -5.038606970680e-06
    35    2.019469659558e-07
    36   -9.253785749496e-16
    37   -3.631870081937e-08
    38   -7.283445400581e-05
    39   -5.139185398962e-05
    40   -5.892662230825e-05
    41    1.045364970376e-05
    42    6.939048432050e-06
    43   -4.370315151043e-16
    44    6.506861900779e-07
    45   -1.544764246547e-06
    46   -6.936808615323e-06
    47   -3.356099546412e-07
    48    9.032210953285e-16
    49    8.958336868965e-06
    50    3.261965363893e-05
    51    3.207683730634e-06
    52   -2.269420734736e-15
    53    3.302743574055e-04
    54    1.633337751101e-04
    55    3.743636139685e-06
    56    1.844377446968e-15
    57    4.893348441126e-04
    58    6.851260445363e-05
    59    1.207883786778e-04
    60    9.842358708419e-15
    61   -5.085872445628e-06
    62    3.348366477153e-16
    63   -1.366603184803e-15
    64    7.643319723378e-06
    65    3.322164340241e-08
    66   -1.112543252230e-05
    67   -1.184060446249e-05
    68   -1.933592044042e-07
    69    7.511011373966e-08
    70   -2.395971704640e-16
    71    8.895474761392e-06
    72    4.042377037829e-06
    73    6.395640455343e-08
    74   -1.992867369832e-16
    75   -2.994449642660e-05
    76   -1.770706881318e-05
    77   -3.357151529232e-06
    78    2.427785694379e-15
    79    2.660313241150e-04
    80    1.378481770111e-04
    81   -3.915105674227e-05
    82   -3.045530026438e-15
    83   -4.609238561662e-07
    84    3.417221765784e-16
    85   -2.055694690848e-16
    86   -2.300853223849e-07
    87   -6.226648048765e-09
    88   -5.744781844399e-06
    89    7.435054941685e-05
    90   -5.598291462261e-05
    91   -4.071355586612e-05
    92    1.069271173874e-15
    93   -3.024442583180e-04
    94   -3.339113214620e-04
    95   -2.050637296407e-04
    96   -1.631240989020e-15
    97    1.438800927835e-04
    98   -6.088124527150e-04
    99   -5.243590383731e-04
   100   -2.256265739063e-16
   101    1.912692961020e-03
   102    7.171768015332e-04
   103   -5.107587938156e-04
   104   -1.435894146197e-15
   105    5.644331490785e-05
   106   -9.474914003914e-16
   107    6.666246039896e-16
   108   -7.110840909938e-05
   109   -1.838753318217e-04
   110   -5.515116319936e-01
   111   -4.716515966026e-01
   112    1.545851357282e-03
   113    8.694669286888e-04
   114   -1.669395855679e-15
   115   -5.511807732849e-03
   116   -6.286762110895e-04
   117   -3.022228747298e-04
   118    2.498029476978e-15
   119    1.343208437118e-03
   120    1.187149523305e-04
   121    3.452552252215e-05
   122   -3.525639550253e-15
   123   -1.141098061584e-03
   124   -3.415052952076e-05
   125    4.219347648141e-06
   126    6.197010588151e-15
   127    1.339816614311e-04
   128   -8.969715235582e-16
   129   -9.446969092536e-16
   130    7.473533451155e-05
   131    6.222045005230e-05
   132   -3.056373278244e-07
   133   -2.786585851230e-06
   134    1.067168446274e-05
   135   -3.535327046120e-06
   136   -6.197866958139e-16
   137    4.281494538363e-05
   138   -3.053659302805e-05
   139   -3.340419847042e-06
   140    4.780917356744e-16
   141   -3.681414739040e-04
   142    9.350971511071e-05
   143    2.937380742869e-04
   144   -1.821153062941e-16
   145    3.803909675937e-07
   146    6.519854974166e-04
   147    1.533220699949e-04
   148   -2.468316253903e-15
   149    9.639313248353e-06
   150   -5.928788128120e-16
   151    6.836027664222e-16
   152   -1.901541756340e-05
   153    1.144904500449e-05
   154    8.720535123794e-08
   155   -6.431068581082e-07
   156   -9.476152557722e-07
   157   -3.229138518375e-07
   158    1.237279173552e-15
   159    8.977991548204e-06
   160    1.468529540982e-06
   161   -4.444034476324e-07
   162   -2.834391779204e-15
   163   -1.408663854159e-04
   164   -7.594959453214e-05
   165   -1.405181745473e-05
   166    7.117939092074e-15
   167   -2.217582868279e-04
   168    6.785021923491e-05
   169   -3.121883543867e-06
   170   -1.839745669496e-14
   171   -7.660310215739e-07
   172    1.719272173403e-15
   173   -1.440054579162e-16
   174   -5.906240346471e-07
   175   -4.046965443400e-09
   176   -4.754732146087e-07
   177   -1.523939416521e-06
   178    3.553108438361e-06
   179    1.524559841983e-05
   180   -6.060607772390e-16
   181    2.739513398443e-05
   182   -1.317494370333e-06
   183   -6.570972763039e-05
   184    5.905060425782e-16
   185   -7.312805826643e-04
   186    5.743015939084e-04
   187   -1.608769521165e-04
   188    4.315938729295e-15
   189   -1.389117127509e-03
   190   -1.434862914464e-04
   191   -1.074447189210e-03
   192   -1.414923462477e-14
   193    7.554278272836e-06
   194   -9.638868704779e-16
   195   -9.794341048930e-16
   196    2.318852228615e-05
   197   -2.466962899673e-05
   198    3.133829866385e-06
   199   -1.264360128757e-04
   200   -1.853173934105e-04
   201   -3.122277621860e-04
   202    1.833136922001e-05
   203   -9.848903734215e-06
   204    7.771954194961e-16
[5D]
