[Molden Format]
[Atoms] (Angs)
  C      1    6     -0.00714236     -1.70213747     -0.00000000
  H      2    1     -2.06882847     -1.44022412      0.00000000
  H      3    1     -0.12337987     -2.77567521      0.00000000
  H      4    1      0.04651892      1.98813947     -0.00000000
  C      5    6     -1.21953563      0.40211669      0.00000000
  O      6    8     -2.25921553      1.03043814      0.00000000
  C      7    6      1.28797806      0.34644937     -0.00000000
  O      8    8      2.31273661      1.00537216     -0.00000000
  N      9    7      0.03446295      0.97739857     -0.00000000
  N     10    7     -1.17287765     -0.98229824      0.00000000
  C     11    6      1.20107039     -1.10433419     -0.00000000
  H     12    1      2.11220096     -1.67699125     -0.00000000
[GTO]
1    0
S    6    1.000000
   4.56324000E+03    1.96665000E-03 
   6.82024000E+02    1.52306000E-02 
   1.54973000E+02    7.61269000E-02 
   4.44553000E+01    2.60801000E-01 
   1.30290000E+01    6.16462000E-01 
   1.82773000E+00    2.21006000E-01 
SP   3    1.000000
   2.09642000E+01    1.14660000E-01   4.02487000E-02 
   4.80331000E+00    9.19999000E-01   2.37594000E-01 
   1.45933000E+00   -3.03068000E-03   8.15854000E-01 
SP   1    1.000000
   4.83456000E-01    1.00000000E+00   1.00000000E+00 
SP   1    1.000000
   1.45585000E-01    1.00000000E+00   1.00000000E+00 
SP   1    1.000000
   4.38000000E-02    1.00000000E+00   1.00000000E+00 
D    1    1.000000
   6.26000000E-01    1.00000000E+00 

2    0
S    3    1.000000
   3.38650000E+01    2.54938000E-02 
   5.09479000E+00    1.90373000E-01 
   1.15879000E+00    8.52161000E-01 
S    1    1.000000
   3.25840000E-01    1.00000000E+00 
S    1    1.000000
   1.02741000E-01    1.00000000E+00 
S    1    1.000000
   3.60000000E-02    1.00000000E+00 
P    1    1.000000
   7.50000000E-01    1.00000000E+00 

3    0
S    3    1.000000
   3.38650000E+01    2.54938000E-02 
   5.09479000E+00    1.90373000E-01 
   1.15879000E+00    8.52161000E-01 
S    1    1.000000
   3.25840000E-01    1.00000000E+00 
S    1    1.000000
   1.02741000E-01    1.00000000E+00 
S    1    1.000000
   3.60000000E-02    1.00000000E+00 
P    1    1.000000
   7.50000000E-01    1.00000000E+00 

4    0
S    3    1.000000
   3.38650000E+01    2.54938000E-02 
   5.09479000E+00    1.90373000E-01 
   1.15879000E+00    8.52161000E-01 
S    1    1.000000
   3.25840000E-01    1.00000000E+00 
S    1    1.000000
   1.02741000E-01    1.00000000E+00 
S    1    1.000000
   3.60000000E-02    1.00000000E+00 
P    1    1.000000
   7.50000000E-01    1.00000000E+00 

5    0
S    6    1.000000
   4.56324000E+03    1.96665000E-03 
   6.82024000E+02    1.52306000E-02 
   1.54973000E+02    7.61269000E-02 
   4.44553000E+01    2.60801000E-01 
   1.30290000E+01    6.16462000E-01 
   1.82773000E+00    2.21006000E-01 
SP   3    1.000000
   2.09642000E+01    1.14660000E-01   4.02487000E-02 
   4.80331000E+00    9.19999000E-01   2.37594000E-01 
   1.45933000E+00   -3.03068000E-03   8.15854000E-01 
SP   1    1.000000
   4.83456000E-01    1.00000000E+00   1.00000000E+00 
SP   1    1.000000
   1.45585000E-01    1.00000000E+00   1.00000000E+00 
SP   1    1.000000
   4.38000000E-02    1.00000000E+00   1.00000000E+00 
D    1    1.000000
   6.26000000E-01    1.00000000E+00 

6    0
S    6    1.000000
   8.58850000E+03    1.89515000E-03 
   1.29723000E+03    1.43859000E-02 
   2.99296000E+02    7.07320000E-02 
   8.73771000E+01    2.40001000E-01 
   2.56789000E+01    5.94797000E-01 
   3.74004000E+00    2.80802000E-01 
SP   3    1.000000
   4.21175000E+01    1.13889000E-01   3.65114000E-02 
   9.62837000E+00    9.20811000E-01   2.37153000E-01 
   2.85332000E+00   -3.27447000E-03   8.19702000E-01 
SP   1    1.000000
   9.05661000E-01    1.00000000E+00   1.00000000E+00 
SP   1    1.000000
   2.55611000E-01    1.00000000E+00   1.00000000E+00 
SP   1    1.000000
   8.45000000E-02    1.00000000E+00   1.00000000E+00 
D    1    1.000000
   1.29200000E+00    1.00000000E+00 

7    0
S    6    1.000000
   4.56324000E+03    1.96665000E-03 
   6.82024000E+02    1.52306000E-02 
   1.54973000E+02    7.61269000E-02 
   4.44553000E+01    2.60801000E-01 
   1.30290000E+01    6.16462000E-01 
   1.82773000E+00    2.21006000E-01 
SP   3    1.000000
   2.09642000E+01    1.14660000E-01   4.02487000E-02 
   4.80331000E+00    9.19999000E-01   2.37594000E-01 
   1.45933000E+00   -3.03068000E-03   8.15854000E-01 
SP   1    1.000000
   4.83456000E-01    1.00000000E+00   1.00000000E+00 
SP   1    1.000000
   1.45585000E-01    1.00000000E+00   1.00000000E+00 
SP   1    1.000000
   4.38000000E-02    1.00000000E+00   1.00000000E+00 
D    1    1.000000
   6.26000000E-01    1.00000000E+00 

8    0
S    6    1.000000
   8.58850000E+03    1.89515000E-03 
   1.29723000E+03    1.43859000E-02 
   2.99296000E+02    7.07320000E-02 
   8.73771000E+01    2.40001000E-01 
   2.56789000E+01    5.94797000E-01 
   3.74004000E+00    2.80802000E-01 
SP   3    1.000000
   4.21175000E+01    1.13889000E-01   3.65114000E-02 
   9.62837000E+00    9.20811000E-01   2.37153000E-01 
   2.85332000E+00   -3.27447000E-03   8.19702000E-01 
SP   1    1.000000
   9.05661000E-01    1.00000000E+00   1.00000000E+00 
SP   1    1.000000
   2.55611000E-01    1.00000000E+00   1.00000000E+00 
SP   1    1.000000
   8.45000000E-02    1.00000000E+00   1.00000000E+00 
D    1    1.000000
   1.29200000E+00    1.00000000E+00 

9    0
S    6    1.000000
   6.29348000E+03    1.96979000E-03 
   9.49044000E+02    1.49613000E-02 
   2.18776000E+02    7.35006000E-02 
   6.36916000E+01    2.48937000E-01 
   1.88282000E+01    6.02460000E-01 
   2.72023000E+00    2.56202000E-01 
SP   3    1.000000
   3.06331000E+01    1.11906000E-01   3.83119000E-02 
   7.02614000E+00    9.21666000E-01   2.37403000E-01 
   2.11205000E+00   -2.56919000E-03   8.17592000E-01 
SP   1    1.000000
   6.84009000E-01    1.00000000E+00   1.00000000E+00 
SP   1    1.000000
   2.00878000E-01    1.00000000E+00   1.00000000E+00 
SP   1    1.000000
   6.39000000E-02    1.00000000E+00   1.00000000E+00 
D    1    1.000000
   9.13000000E-01    1.00000000E+00 

10    0
S    6    1.000000
   6.29348000E+03    1.96979000E-03 
   9.49044000E+02    1.49613000E-02 
   2.18776000E+02    7.35006000E-02 
   6.36916000E+01    2.48937000E-01 
   1.88282000E+01    6.02460000E-01 
   2.72023000E+00    2.56202000E-01 
SP   3    1.000000
   3.06331000E+01    1.11906000E-01   3.83119000E-02 
   7.02614000E+00    9.21666000E-01   2.37403000E-01 
   2.11205000E+00   -2.56919000E-03   8.17592000E-01 
SP   1    1.000000
   6.84009000E-01    1.00000000E+00   1.00000000E+00 
SP   1    1.000000
   2.00878000E-01    1.00000000E+00   1.00000000E+00 
SP   1    1.000000
   6.39000000E-02    1.00000000E+00   1.00000000E+00 
D    1    1.000000
   9.13000000E-01    1.00000000E+00 

11    0
S    6    1.000000
   4.56324000E+03    1.96665000E-03 
   6.82024000E+02    1.52306000E-02 
   1.54973000E+02    7.61269000E-02 
   4.44553000E+01    2.60801000E-01 
   1.30290000E+01    6.16462000E-01 
   1.82773000E+00    2.21006000E-01 
SP   3    1.000000
   2.09642000E+01    1.14660000E-01   4.02487000E-02 
   4.80331000E+00    9.19999000E-01   2.37594000E-01 
   1.45933000E+00   -3.03068000E-03   8.15854000E-01 
SP   1    1.000000
   4.83456000E-01    1.00000000E+00   1.00000000E+00 
SP   1    1.000000
   1.45585000E-01    1.00000000E+00   1.00000000E+00 
SP   1    1.000000
   4.38000000E-02    1.00000000E+00   1.00000000E+00 
D    1    1.000000
   6.26000000E-01    1.00000000E+00 

12    0
S    3    1.000000
   3.38650000E+01    2.54938000E-02 
   5.09479000E+00    1.90373000E-01 
   1.15879000E+00    8.52161000E-01 
S    1    1.000000
   3.25840000E-01    1.00000000E+00 
S    1    1.000000
   1.02741000E-01    1.00000000E+00 
S    1    1.000000
   3.60000000E-02    1.00000000E+00 
P    1    1.000000
   7.50000000E-01    1.00000000E+00 

[MO]
Sym=X
Ene= -0.494526
Spin=Alpha
Occup=1
     1   -3.755687753149e-03
     2   -6.216531198715e-03
     3   -1.669775361793e-03
     4   -1.494606472520e-02
     5    5.265214482737e-14
     6    8.682534674001e-03
     7    2.789414481250e-03
     8   -1.742807597087e-02
     9    5.752064264648e-14
    10    3.096661812106e-01
    11   -1.022104273509e-01
    12    1.224553209496e-01
    13    7.126522786059e-14
    14    8.180729533138e+00
    15   -2.125561430051e-01
    16    1.857360515129e+00
    17   -4.094302430912e-13
    18    1.309135103201e-02
    19   -5.607324669532e-15
    20   -1.214841756227e-14
    21    7.184458725161e-03
    22   -5.182547255997e-03
    23   -7.325760365982e-03
    24   -7.571898335986e-02
    25    2.619635759590e-01
    26    5.520169670043e-01
    27   -7.045665381751e-03
    28   -3.121108779590e-03
    29   -1.337442093075e-14
    30   -1.110781679591e-02
    31   -9.092534018125e-03
    32   -1.097648887559e-01
    33   -5.005786855320e-01
    34   -7.588219824725e-04
    35    7.405921111314e-03
    36    4.272970371817e-15
    37   -2.243957309409e-02
    38   -1.343522288773e-01
    39   -4.163014843526e-01
    40   -1.915426018887e+00
    41    7.937979220738e-04
    42   -2.743177600282e-03
    43   -1.573965314207e-15
    44   -2.059274550011e-03
    45   -2.884347208012e-03
    46    4.252912978978e-03
    47    4.239177593377e-03
    48   -2.145934514106e-15
    49   -1.363198223624e-02
    50    5.569334646246e-03
    51    6.585768838763e-04
    52    3.241984279175e-14
    53    3.255713023286e-01
    54    2.314885184516e-01
    55   -1.132155127393e-01
    56   -1.226318619432e-13
    57   -4.642413902999e-01
    58   -1.443522515088e-02
    59    8.768407194242e-01
    60   -2.357744677233e-14
    61    1.331167357940e-02
    62    9.263980390270e-15
    63   -1.656069605602e-16
    64   -9.833397139517e-03
    65    4.403890691262e-03
    66    3.835210819847e-03
    67    6.740689673733e-03
    68   -6.730198517793e-03
    69    1.436961087321e-02
    70    3.047149435435e-15
    71   -2.635819307357e-02
    72   -6.458840673185e-03
    73    1.842936924657e-02
    74    1.845331971134e-14
    75    4.783639393826e-02
    76   -1.053304867094e-02
    77    2.747461713549e-02
    78    2.504640335434e-14
    79   -1.613349203837e-01
    80    9.629006539872e-03
    81   -7.424212859916e-02
    82   -3.415947822753e-14
    83    1.348063905068e-03
    84   -1.791087561621e-15
    85    2.267621739499e-15
    86    1.108428381942e-03
    87    5.273705441390e-04
    88    3.077252616856e-04
    89    1.681581998586e-03
    90    1.745460859953e-02
    91    2.773284447694e-02
    92   -1.809472387566e-14
    93   -5.754000770627e-02
    94    3.499617750191e-02
    95    4.765465664435e-02
    96   -1.053171249067e-13
    97    7.138871095054e-01
    98    1.446277857100e-02
    99    1.703189117730e-01
   100   -2.517023371547e-14
   101    1.373469724177e+01
   102   -1.740720981839e+00
   103   -2.510438126018e+00
   104   -2.679343056508e-13
   105    2.490861212354e-02
   106    2.627948887364e-15
   107    6.911432320130e-15
   108   -1.532289248074e-02
   109   -1.988928591199e-02
   110    9.990351393097e-03
   111    1.732047359113e-02
   112    3.545603045553e-02
   113    3.522978101195e-02
   114    2.628697314252e-14
   115   -5.880161595328e-02
   116    4.411565549221e-02
   117    4.993910013611e-02
   118   -4.253485935109e-15
   119   -1.575737624563e-01
   120    1.096503626331e-01
   121    5.474924933283e-02
   122    6.210821527440e-14
   123   -8.949534378998e-01
   124    1.787568327809e-01
   125    2.009316013620e-01
   126    1.267057739685e-13
   127    4.270747046433e-03
   128    3.754822552479e-15
   129    2.365471275942e-15
   130    2.294048599045e-03
   131   -4.768114818442e-04
   132    8.843446472209e-04
   133    1.531534151590e-03
   134    2.131992211965e-03
   135    4.028024038222e-02
   136    1.304475871125e-14
   137   -6.653580172586e-03
   138    5.489837269187e-03
   139    6.100859987615e-02
   140   -1.061535310927e-14
   141   -7.731569135868e-02
   142   -3.702909177310e-02
   143    2.718766140306e-01
   144    1.434763728520e-13
   145   -2.586703041402e+00
   146   -2.363666756411e-01
   147    8.199550008872e-01
   148   -5.711236967007e-14
   149    9.964216416545e-03
   150   -3.145549270000e-15
   151   -2.830064537912e-15
   152    9.325210554489e-03
   153    3.739173010674e-03
   154    5.777809783979e-03
   155    9.634694049502e-03
   156    4.693363023851e-03
   157    6.487916468849e-03
   158   -2.031454594180e-14
   159   -2.227777370077e-02
   160    1.152993356990e-02
   161    1.238485967056e-02
   162   -3.891105395898e-14
   163   -2.340512199700e-01
   164   -1.243061272897e-01
   165   -5.876227789126e-02
   166   -6.594101739827e-14
   167   -1.698721568511e+00
   168    5.772648462792e-02
   169    5.585219435241e-01
   170    3.754260616856e-13
   171    7.046766293378e-03
   172    1.035826034137e-14
   173   -5.889423927527e-15
   174   -9.540990906996e-06
   175   -2.332783128773e-04
   176   -3.456583611156e-04
   177   -3.283889934091e-04
   178    2.426866355760e-02
   179   -1.759652288172e-02
   180   -2.483013293000e-14
   181   -1.412838816280e-03
   182    3.497204894252e-02
   183   -3.349381927409e-02
   184   -7.317739342650e-14
   185   -5.500445414611e-02
   186    2.171328410853e-01
   187   -1.720139597988e-01
   188    1.924671278238e-14
   189   -1.228273443395e+01
   190    3.058781221860e+00
   191   -3.194096269689e+00
   192    2.989820998765e-13
   193    1.856628946381e-02
   194   -1.855088175246e-14
   195   -3.908642081353e-15
   196    3.019418280080e-03
   197    1.537019532995e-02
   198   -1.589414426324e-02
   199   -4.602983398467e-02
   200   -6.161105216119e-01
   201   -2.915657138004e+00
   202   -4.096100406841e-03
   203    7.638554694093e-03
   204   -2.575431277118e-15
Sym=X
Ene= 0.494526
Spin=Alpha
Occup=0
     1   -2.621211621984e-15
     2   -1.347319207561e-14
     3    4.148091166180e-15
     4   -1.191651903757e-14
     5    1.442488545919e-02
     6    2.788174638812e-14
     7   -1.657510440769e-14
     8   -1.883430459048e-14
     9    4.189094398763e-02
    10    1.983767673112e-13
    11    3.726781205128e-13
    12   -1.220217627183e-13
    13    2.709812354659e-02
    14   -6.976942484160e-13
    15    2.350703550437e-12
    16   -9.956307192435e-13
    17   -5.361677003445e-01
    18   -1.768057168585e-14
    19   -1.386612684831e-02
    20   -8.225762213268e-03
    21    2.007648178201e-15
    22    1.873962520642e-14
    23    1.487961885108e-14
    24   -1.121870193978e-14
    25    6.324535388900e-13
    26    2.218692820704e-13
    27    5.102794535489e-15
    28    2.229309191144e-15
    29    8.649478528538e-04
    30    1.827343689475e-14
    31   -1.383035441240e-13
    32    5.652664236225e-13
    33    1.745343235401e-12
    34   -1.255680756904e-14
    35   -1.054054626145e-14
    36    7.015526615410e-03
    37   -6.424317499609e-16
    38    4.492046890090e-16
    39    5.289777147268e-13
    40   -1.260901964504e-12
    41    5.486914687084e-16
    42    1.940698113035e-14
    43   -5.582200773267e-04
    44   -2.037679828354e-15
    45   -3.299485013906e-15
    46    1.683551038096e-14
    47    2.940564408148e-15
    48   -1.689615527548e-02
    49   -1.121595201924e-14
    50    2.262999052747e-14
    51   -2.114274171265e-14
    52   -2.968913244342e-02
    53    6.359377548863e-14
    54    7.073278839807e-13
    55   -3.647731446855e-14
    56   -7.370461876267e-02
    57    3.216635968333e-12
    58    1.600119901928e-12
    59   -4.244823378169e-13
    60   -1.771371861084e+00
    61    1.408225172572e-14
    62   -9.302084213929e-03
    63    5.500201230904e-03
    64    4.517672243539e-15
    65    2.371449626671e-15
    66   -1.059964928680e-17
    67    2.986753539477e-15
    68   -6.252818724391e-15
    69    2.200826114602e-15
    70    4.787254884048e-02
    71   -1.074426701078e-14
    72   -1.369336437352e-14
    73    6.959974635972e-15
    74    8.415405822806e-02
    75    7.704862737300e-14
    76    9.156368164527e-14
    77   -3.159281063415e-14
    78    3.503421296941e-02
    79    1.580193743242e-12
    80    2.051582612096e-13
    81   -5.742704707980e-13
    82    4.972502373992e-01
    83    2.043691746909e-15
    84    1.033238442570e-03
    85   -9.137936185521e-04
    86    1.050739161322e-15
    87   -7.469802853967e-16
    88    1.057778251107e-15
    89    5.188572994747e-16
    90   -4.475633151468e-15
    91    7.474521294145e-15
    92    2.938980274264e-03
    93   -3.331114570504e-14
    94    3.878080754811e-15
    95   -2.592901797175e-14
    96    2.250824294490e-02
    97    5.330263642328e-13
    98   -3.264924502565e-13
    99    8.301147127901e-14
   100   -2.548597618998e-02
   101    8.714316371235e-13
   102   -5.162479728995e-12
   103    1.218111122894e-12
   104   -4.466749510146e-01
   105   -1.434268143166e-14
   106   -4.929586442663e-03
   107    1.506435587535e-02
   108    9.965687866301e-15
   109   -5.487733392413e-15
   110    1.339207371118e-16
   111    3.384083959584e-16
   112    3.138078939278e-15
   113   -1.456415067703e-14
   114   -2.860406679305e-02
   115   -4.137411374390e-16
   116    2.260324130285e-14
   117   -2.077502054889e-14
   118   -3.653518205142e-02
   119    8.390797107635e-15
   120   -1.012017905974e-13
   121   -5.435256585413e-14
   122   -6.013121584393e-02
   123    6.895292695899e-13
   124    6.814001244278e-13
   125    1.284091102318e-13
   126    1.729757861863e-01
   127   -3.102436402299e-15
   128    2.331251853813e-03
   129   -2.036146873315e-04
   130   -1.488397204198e-15
   131   -2.180337137678e-16
   132    9.187860422022e-15
   133    1.683921267820e-14
   134    1.610358281368e-14
   135   -2.482980770921e-14
   136    4.050283356753e-02
   137   -4.694481278347e-14
   138    2.387743456213e-14
   139   -6.019560384110e-14
   140    6.735368508525e-02
   141   -2.100988673553e-13
   142    1.230607874701e-13
   143    1.786129261911e-13
   144    8.661471216098e-02
   145   -7.569958108014e-12
   146    4.580726215529e-14
   147    9.091525728030e-13
   148    2.506938427814e-01
   149    3.679146240227e-16
   150    7.298214947558e-03
   151   -4.508098813837e-04
   152   -2.972385215152e-15
   153    5.858531177256e-15
   154    7.565809643640e-15
   155    1.012333641690e-14
   156    4.468623072453e-15
   157    2.887638043559e-15
   158    2.153385517963e-02
   159   -1.875516902209e-14
   160   -2.927772840572e-15
   161   -1.850541584819e-14
   162    4.433724904266e-02
   163   -2.457842011100e-13
   164    9.062452502244e-14
   165    4.696364115510e-14
   166    4.343726090188e-03
   167    2.284099534081e-12
   168    1.245749756024e-12
   169   -9.182042188630e-13
   170    5.469730209524e-01
   171    1.445015374265e-15
   172    3.072225980866e-03
   173   -6.159685272060e-03
   174   -1.680940945141e-15
   175   -7.846226851480e-16
   176   -1.058202643446e-14
   177   -2.352195156599e-14
   178    3.125377324033e-16
   179   -1.130928677469e-14
   180   -7.781484473030e-02
   181    7.427267524727e-14
   182    3.963234852120e-14
   183   -3.000616663861e-14
   184   -9.281048298419e-02
   185    7.444093639900e-14
   186    1.684446698696e-13
   187    1.011788803234e-13
   188   -3.842501152265e-01
   189   -4.586160402632e-12
   190    3.589533188446e-12
   191    3.959968477952e-12
   192    1.742998175770e+00
   193   -4.582837474776e-15
   194    6.609017399912e-03
   195   -9.649919425757e-03
   196    9.732738362805e-15
   197   -6.498023370978e-15
   198    1.697276626759e-14
   199    1.138201773309e-14
   200    3.308291983880e-13
   201    1.368116970083e-12
   202   -8.221600885097e-15
   203   -2.686748899815e-16
   204    4.066653134960e-03
[5D]
