[Molden Format]
[Atoms] (Angs)
  C      1    6     -0.00714236     -1.70213747     -0.00000000
  H      2    1     -2.06882847     -1.44022412      0.00000000
  H      3    1     -0.12337987     -2.77567521      0.00000000
  H      4    1      0.04651892      1.98813947     -0.00000000
  C      5    6     -1.21953563      0.40211669      0.00000000
  O      6    8     -2.25921553      1.03043814      0.00000000
  C      7    6      1.28797806      0.34644937     -0.00000000
  O      8    8      2.31273661      1.00537216     -0.00000000
  N      9    7      0.03446295      0.97739857     -0.00000000
  N     10    7     -1.17287765     -0.98229824      0.00000000
  C     11    6      1.20107039     -1.10433419     -0.00000000
  H     12    1      2.11220096     -1.67699125     -0.00000000
[GTO]
1    0
S    6    1.000000
   4.56324000E+03    1.96665000E-03 
   6.82024000E+02    1.52306000E-02 
   1.54973000E+02    7.61269000E-02 
   4.44553000E+01    2.60801000E-01 
   1.30290000E+01    6.16462000E-01 
   1.82773000E+00    2.21006000E-01 
SP   3    1.000000
   2.09642000E+01    1.14660000E-01   4.02487000E-02 
   4.80331000E+00    9.19999000E-01   2.37594000E-01 
   1.45933000E+00   -3.03068000E-03   8.15854000E-01 
SP   1    1.000000
   4.83456000E-01    1.00000000E+00   1.00000000E+00 
SP   1    1.000000
   1.45585000E-01    1.00000000E+00   1.00000000E+00 
SP   1    1.000000
   4.38000000E-02    1.00000000E+00   1.00000000E+00 
D    1    1.000000
   6.26000000E-01    1.00000000E+00 

2    0
S    3    1.000000
   3.38650000E+01    2.54938000E-02 
   5.09479000E+00    1.90373000E-01 
   1.15879000E+00    8.52161000E-01 
S    1    1.000000
   3.25840000E-01    1.00000000E+00 
S    1    1.000000
   1.02741000E-01    1.00000000E+00 
S    1    1.000000
   3.60000000E-02    1.00000000E+00 
P    1    1.000000
   7.50000000E-01    1.00000000E+00 

3    0
S    3    1.000000
   3.38650000E+01    2.54938000E-02 
   5.09479000E+00    1.90373000E-01 
   1.15879000E+00    8.52161000E-01 
S    1    1.000000
   3.25840000E-01    1.00000000E+00 
S    1    1.000000
   1.02741000E-01    1.00000000E+00 
S    1    1.000000
   3.60000000E-02    1.00000000E+00 
P    1    1.000000
   7.50000000E-01    1.00000000E+00 

4    0
S    3    1.000000
   3.38650000E+01    2.54938000E-02 
   5.09479000E+00    1.90373000E-01 
   1.15879000E+00    8.52161000E-01 
S    1    1.000000
   3.25840000E-01    1.00000000E+00 
S    1    1.000000
   1.02741000E-01    1.00000000E+00 
S    1    1.000000
   3.60000000E-02    1.00000000E+00 
P    1    1.000000
   7.50000000E-01    1.00000000E+00 

5    0
S    6    1.000000
   4.56324000E+03    1.96665000E-03 
   6.82024000E+02    1.52306000E-02 
   1.54973000E+02    7.61269000E-02 
   4.44553000E+01    2.60801000E-01 
   1.30290000E+01    6.16462000E-01 
   1.82773000E+00    2.21006000E-01 
SP   3    1.000000
   2.09642000E+01    1.14660000E-01   4.02487000E-02 
   4.80331000E+00    9.19999000E-01   2.37594000E-01 
   1.45933000E+00   -3.03068000E-03   8.15854000E-01 
SP   1    1.000000
   4.83456000E-01    1.00000000E+00   1.00000000E+00 
SP   1    1.000000
   1.45585000E-01    1.00000000E+00   1.00000000E+00 
SP   1    1.000000
   4.38000000E-02    1.00000000E+00   1.00000000E+00 
D    1    1.000000
   6.26000000E-01    1.00000000E+00 

6    0
S    6    1.000000
   8.58850000E+03    1.89515000E-03 
   1.29723000E+03    1.43859000E-02 
   2.99296000E+02    7.07320000E-02 
   8.73771000E+01    2.40001000E-01 
   2.56789000E+01    5.94797000E-01 
   3.74004000E+00    2.80802000E-01 
SP   3    1.000000
   4.21175000E+01    1.13889000E-01   3.65114000E-02 
   9.62837000E+00    9.20811000E-01   2.37153000E-01 
   2.85332000E+00   -3.27447000E-03   8.19702000E-01 
SP   1    1.000000
   9.05661000E-01    1.00000000E+00   1.00000000E+00 
SP   1    1.000000
   2.55611000E-01    1.00000000E+00   1.00000000E+00 
SP   1    1.000000
   8.45000000E-02    1.00000000E+00   1.00000000E+00 
D    1    1.000000
   1.29200000E+00    1.00000000E+00 

7    0
S    6    1.000000
   4.56324000E+03    1.96665000E-03 
   6.82024000E+02    1.52306000E-02 
   1.54973000E+02    7.61269000E-02 
   4.44553000E+01    2.60801000E-01 
   1.30290000E+01    6.16462000E-01 
   1.82773000E+00    2.21006000E-01 
SP   3    1.000000
   2.09642000E+01    1.14660000E-01   4.02487000E-02 
   4.80331000E+00    9.19999000E-01   2.37594000E-01 
   1.45933000E+00   -3.03068000E-03   8.15854000E-01 
SP   1    1.000000
   4.83456000E-01    1.00000000E+00   1.00000000E+00 
SP   1    1.000000
   1.45585000E-01    1.00000000E+00   1.00000000E+00 
SP   1    1.000000
   4.38000000E-02    1.00000000E+00   1.00000000E+00 
D    1    1.000000
   6.26000000E-01    1.00000000E+00 

8    0
S    6    1.000000
   8.58850000E+03    1.89515000E-03 
   1.29723000E+03    1.43859000E-02 
   2.99296000E+02    7.07320000E-02 
   8.73771000E+01    2.40001000E-01 
   2.56789000E+01    5.94797000E-01 
   3.74004000E+00    2.80802000E-01 
SP   3    1.000000
   4.21175000E+01    1.13889000E-01   3.65114000E-02 
   9.62837000E+00    9.20811000E-01   2.37153000E-01 
   2.85332000E+00   -3.27447000E-03   8.19702000E-01 
SP   1    1.000000
   9.05661000E-01    1.00000000E+00   1.00000000E+00 
SP   1    1.000000
   2.55611000E-01    1.00000000E+00   1.00000000E+00 
SP   1    1.000000
   8.45000000E-02    1.00000000E+00   1.00000000E+00 
D    1    1.000000
   1.29200000E+00    1.00000000E+00 

9    0
S    6    1.000000
   6.29348000E+03    1.96979000E-03 
   9.49044000E+02    1.49613000E-02 
   2.18776000E+02    7.35006000E-02 
   6.36916000E+01    2.48937000E-01 
   1.88282000E+01    6.02460000E-01 
   2.72023000E+00    2.56202000E-01 
SP   3    1.000000
   3.06331000E+01    1.11906000E-01   3.83119000E-02 
   7.02614000E+00    9.21666000E-01   2.37403000E-01 
   2.11205000E+00   -2.56919000E-03   8.17592000E-01 
SP   1    1.000000
   6.84009000E-01    1.00000000E+00   1.00000000E+00 
SP   1    1.000000
   2.00878000E-01    1.00000000E+00   1.00000000E+00 
SP   1    1.000000
   6.39000000E-02    1.00000000E+00   1.00000000E+00 
D    1    1.000000
   9.13000000E-01    1.00000000E+00 

10    0
S    6    1.000000
   6.29348000E+03    1.96979000E-03 
   9.49044000E+02    1.49613000E-02 
   2.18776000E+02    7.35006000E-02 
   6.36916000E+01    2.48937000E-01 
   1.88282000E+01    6.02460000E-01 
   2.72023000E+00    2.56202000E-01 
SP   3    1.000000
   3.06331000E+01    1.11906000E-01   3.83119000E-02 
   7.02614000E+00    9.21666000E-01   2.37403000E-01 
   2.11205000E+00   -2.56919000E-03   8.17592000E-01 
SP   1    1.000000
   6.84009000E-01    1.00000000E+00   1.00000000E+00 
SP   1    1.000000
   2.00878000E-01    1.00000000E+00   1.00000000E+00 
SP   1    1.000000
   6.39000000E-02    1.00000000E+00   1.00000000E+00 
D    1    1.000000
   9.13000000E-01    1.00000000E+00 

11    0
S    6    1.000000
   4.56324000E+03    1.96665000E-03 
   6.82024000E+02    1.52306000E-02 
   1.54973000E+02    7.61269000E-02 
   4.44553000E+01    2.60801000E-01 
   1.30290000E+01    6.16462000E-01 
   1.82773000E+00    2.21006000E-01 
SP   3    1.000000
   2.09642000E+01    1.14660000E-01   4.02487000E-02 
   4.80331000E+00    9.19999000E-01   2.37594000E-01 
   1.45933000E+00   -3.03068000E-03   8.15854000E-01 
SP   1    1.000000
   4.83456000E-01    1.00000000E+00   1.00000000E+00 
SP   1    1.000000
   1.45585000E-01    1.00000000E+00   1.00000000E+00 
SP   1    1.000000
   4.38000000E-02    1.00000000E+00   1.00000000E+00 
D    1    1.000000
   6.26000000E-01    1.00000000E+00 

12    0
S    3    1.000000
   3.38650000E+01    2.54938000E-02 
   5.09479000E+00    1.90373000E-01 
   1.15879000E+00    8.52161000E-01 
S    1    1.000000
   3.25840000E-01    1.00000000E+00 
S    1    1.000000
   1.02741000E-01    1.00000000E+00 
S    1    1.000000
   3.60000000E-02    1.00000000E+00 
P    1    1.000000
   7.50000000E-01    1.00000000E+00 

[MO]
Sym=X
Ene= -0.495049
Spin=Alpha
Occup=1
     1    5.542619082475e-03
     2    9.361914723112e-03
     3    1.017747797507e-03
     4    2.345764804412e-02
     5    3.329225445648e-14
     6   -2.105346493993e-02
     7   -1.493632406894e-03
     8    3.648830837077e-02
     9    8.295501774552e-14
    10   -2.356674931853e-01
    11   -4.549285475212e-02
    12   -9.389144688091e-03
    13    1.271758689634e-13
    14   -2.289997500237e+00
    15    3.410242711181e-01
    16   -1.648259452876e-01
    17    6.223464090667e-13
    18   -5.667767137869e-04
    19   -1.250956738179e-14
    20   -1.653760701334e-15
    21   -1.349578516907e-02
    22   -1.179398374071e-03
    23    1.132171000457e-02
    24    6.682505427915e-02
    25    4.772844401653e-01
    26    1.661184414585e+00
    27   -9.345165421300e-03
    28   -5.247475108763e-03
    29    3.094650897267e-15
    30    4.601337563506e-03
    31   -1.815501759520e-03
    32    1.769381888977e-01
    33    7.423449153248e-01
    34   -3.310899709169e-03
    35   -7.037219113378e-03
    36    9.039784700290e-15
    37    6.534008786537e-03
    38    1.562246502890e-02
    39   -4.415971695295e-01
    40   -1.359204590691e+00
    41    5.359100120841e-03
    42   -1.245679414434e-02
    43    8.166550476629e-15
    44    3.148673015043e-03
    45    5.227371963429e-03
    46    1.051013141407e-02
    47   -8.236748434573e-03
    48   -8.352062179550e-15
    49    1.761268078568e-03
    50    2.277584967100e-02
    51   -1.095382057920e-02
    52   -3.869941106570e-14
    53   -2.675880829916e-01
    54    1.341009569699e-01
    55   -9.286274645798e-02
    56    1.944326813253e-14
    57   -8.442045616470e-01
    58    3.740066830427e-01
    59   -3.864643580295e-01
    60   -8.202655067136e-13
    61   -1.404886854913e-02
    62   -9.924753238319e-16
    63    4.902555301710e-15
    64   -6.533593108389e-03
    65   -1.351960047897e-02
    66   -1.355959387126e-02
    67   -2.350470914942e-02
    68    3.475680914676e-02
    69    3.692808924970e-02
    70    2.059697778475e-14
    71    8.089047586754e-02
    72    4.673532837110e-02
    73    5.103286494256e-02
    74    3.058392592707e-14
    75    1.784195823080e-01
    76    8.633020151843e-02
    77    1.666038661738e-02
    78    3.185740673423e-14
    79    5.677720318611e-01
    80   -8.054854756922e-03
    81   -8.210932644801e-02
    82    1.871976661348e-13
    83   -1.949919510109e-03
    84   -8.405837098831e-16
    85   -2.423467290264e-15
    86    3.599507097130e-03
    87    1.364334713463e-03
    88    4.903780603308e-03
    89    8.704150931959e-03
    90    1.104188301189e-02
    91   -1.906832280084e-03
    92   -9.050558997999e-15
    93   -2.903168182064e-02
    94    2.271033723991e-02
    95   -1.657528226702e-03
    96   -7.810257193812e-15
    97   -2.414702681018e-02
    98    2.104383721198e-02
    99    3.671387592225e-02
   100    6.703863569131e-14
   101   -3.071638775137e+00
   102   -3.790802453154e-02
   103    1.293873293163e+00
   104    6.324707779073e-13
   105   -6.777724629677e-03
   106   -6.085466319208e-15
   107    1.166578526168e-14
   108   -5.876544155963e-03
   109   -3.513182735988e-04
   110   -2.510140947322e-03
   111   -4.367865425452e-03
   112   -5.098537584597e-03
   113    6.902889383908e-03
   114    6.634467093995e-15
   115    1.548588559356e-02
   116   -6.596244284605e-03
   117    9.324138103805e-03
   118    7.616517060423e-15
   119    2.663475080187e-03
   120   -6.676460864939e-03
   121    1.940870227712e-02
   122    4.857697977027e-14
   123    3.178249932957e-02
   124    1.841025212973e-02
   125   -7.565189068777e-02
   126   -2.164368060237e-13
   127   -3.888894463612e-04
   128   -1.157848763952e-16
   129   -2.407095824312e-15
   130   -3.865700411284e-05
   131   -7.926264016311e-05
   132   -1.245718224090e-02
   133   -2.153443186363e-02
   134    1.195369718531e-04
   135    3.490541555667e-02
   136    1.060589449529e-14
   137    6.569458630123e-02
   138   -3.458097883996e-03
   139    5.409570181607e-02
   140    3.574311558599e-14
   141    2.053412714061e-01
   142   -1.584625315372e-02
   143    8.144440009631e-02
   144   -3.983337668368e-14
   145    3.737327192911e-01
   146   -5.156840891565e-02
   147    7.292395578567e-01
   148    1.869872986667e-13
   149   -3.821739059444e-03
   150    8.652066821707e-16
   151    3.859008721394e-15
   152   -4.400955112325e-04
   153    4.310727117043e-03
   154    8.053433367890e-03
   155    1.375520029857e-02
   156    3.443272010460e-02
   157    3.603353503890e-02
   158   -1.260977946097e-14
   159   -3.752165617890e-02
   160    5.513850315080e-02
   161    5.366932064937e-02
   162   -1.132607107926e-14
   163   -1.803424084297e-01
   164    1.183072299956e-01
   165    1.192471026951e-01
   166   -7.931880170115e-14
   167    2.956214517156e-01
   168    5.612789667628e-01
   169    2.205323244689e-01
   170    9.967683109047e-14
   171   -2.200140587190e-03
   172    2.188738709807e-15
   173   -4.385502572684e-15
   174    3.583435938073e-03
   175    6.303238496020e-03
   176   -2.130259422400e-03
   177   -3.647129333722e-03
   178    1.555145982100e-03
   179    1.334774173158e-02
   180   -3.147236495010e-14
   181    6.183411959665e-03
   182   -8.036020089202e-04
   183    1.435904851960e-02
   184   -6.170150506703e-14
   185    1.515413962883e-01
   186   -7.595532135829e-02
   187    6.882311274464e-02
   188   -9.708854922299e-14
   189    3.887268767283e+00
   190   -1.904630017298e-01
   191    1.152597992996e+00
   192   -8.395175221643e-13
   193   -2.055483070062e-03
   194   -2.036451747054e-15
   195   -5.765920117193e-15
   196    5.219803352510e-03
   197    2.197285158153e-04
   198    1.682597127006e-03
   199    1.556298990892e-02
   200    4.828277650226e-02
   201    1.237279633132e-01
   202    6.288574033470e-04
   203    9.083645073757e-04
   204   -3.484547567231e-15
Sym=X
Ene= 0.495049
Spin=Alpha
Occup=0
     1   -1.744953645875e-02
     2   -3.080264083077e-02
     3   -1.591595538254e-02
     4   -2.787844476627e-02
     5    4.680041900985e-14
     6    1.093469522493e-01
     7   -2.871749639072e-02
     8   -3.825775739159e-02
     9    8.647518199917e-14
    10    8.803970002491e-02
    11   -6.954755305250e-02
    12   -1.650316377766e-01
    13    6.571046149218e-14
    14    3.919154845312e+00
    15    7.080787517434e-01
    16   -1.796821451673e+00
    17    1.974781049248e-13
    18    1.870070193807e-04
    19    5.447102416339e-16
    20   -2.770547569120e-15
    21    8.150044614382e-03
    22   -1.707362003091e-03
    23   -1.302698030787e-02
    24   -3.945393767103e-02
    25    3.108009178502e-01
    26    4.882970378147e-01
    27   -3.300584825271e-03
    28    7.956815662661e-03
    29   -8.542515281498e-15
    30    1.982322963524e-03
    31    1.638440420679e-02
    32   -4.307979926391e-01
    33   -3.190154814988e+00
    34    1.031804467436e-03
    35    1.311389807311e-02
    36    5.060958390545e-15
    37   -1.443530245741e-02
    38   -4.009147295799e-02
    39   -2.500889922214e-01
    40   -1.020710115615e+00
    41    8.063941149562e-04
    42   -9.852293398783e-03
    43   -9.050427810998e-16
    44   -7.360290583762e-03
    45   -1.322734528985e-02
    46   -1.935265224932e-02
    47    7.261295534868e-03
    48   -6.474837394412e-15
    49    4.327161251310e-02
    50   -3.391614967044e-02
    51    1.769701537733e-02
    52    4.167710123764e-15
    53    1.710068210953e-01
    54   -3.855346589219e-01
    55    1.854207723541e-01
    56   -5.703788532899e-14
    57    1.979395168990e-01
    58   -1.676358969368e+00
    59   -1.979701378643e-01
    60   -8.209032931061e-13
    61    8.094788252946e-03
    62   -5.437551832692e-16
    63    1.039144593033e-14
    64   -1.138372807451e-02
    65    1.435233328293e-02
    66    1.519338934650e-02
    67    2.615062923985e-02
    68    7.053915934398e-03
    69    3.355032050769e-02
    70   -1.197984693070e-15
    71   -8.858415664098e-02
    72    1.340096904992e-02
    73    4.673562180441e-02
    74    1.273893729700e-14
    75   -2.492587995242e-01
    76   -6.588954645944e-02
    77    7.945429514245e-02
    78   -4.842582163338e-14
    79   -9.703066122290e-01
    80   -6.591593455124e-02
    81    1.042173936183e-01
    82    3.600210429120e-13
    83    2.748091439133e-04
    84    1.233178227802e-15
    85    8.940922803733e-16
    86    2.524479610994e-03
    87    1.590103770213e-05
    88   -3.269401987518e-03
    89   -5.738595547149e-03
    90   -3.940323415243e-03
    91   -2.034183360077e-03
    92   -3.481941468127e-14
    93    2.249410228516e-02
    94   -9.808567519766e-03
    95   -5.928703474098e-03
    96   -7.515238765173e-14
    97   -1.093045247123e-03
    98    1.162237678987e-01
    99    6.721570269549e-02
   100   -1.091893833701e-13
   101    1.709515185700e+00
   102   -1.253118183989e+00
   103    1.787114511934e-01
   104    6.190568059217e-13
   105   -2.323846401726e-03
   106    8.007820623822e-15
   107    6.704163263468e-15
   108   -7.351120332697e-03
   109   -7.488999089686e-03
   110   -2.128450466261e-03
   111   -3.748745187884e-03
   112    5.062680266499e-03
   113    1.158320296387e-02
   114    3.686208829766e-14
   115    1.387275382204e-02
   116    8.348521135043e-03
   117    1.661097696092e-02
   118    3.765645148887e-14
   119   -3.255667721012e-03
   120    7.644824723038e-04
   121    1.929062549613e-02
   122    1.279368511267e-13
   123   -2.093197499529e-01
   124    1.922239502998e-01
   125    9.471496877841e-02
   126   -2.098329411643e-13
   127   -6.743652624823e-04
   128    4.392191674379e-16
   129    3.345103879325e-15
   130    6.545277837263e-04
   131    5.554665086827e-04
   132   -8.904358640891e-03
   133   -1.519616668003e-02
   134    7.220445777709e-03
   135    2.547462109054e-02
   136    2.356427223820e-14
   137    4.273373332304e-02
   138    1.018990990029e-02
   139    4.162187860683e-02
   140    4.348486840147e-14
   141    2.611658960103e-01
   142    7.590421577197e-03
   143   -4.258495384522e-03
   144    7.950766854163e-14
   145    4.680338681128e-01
   146   -1.107159736456e-03
   147    2.160820032585e-01
   148    4.070169869834e-14
   149   -4.597365209664e-04
   150   -3.433966727345e-15
   151    1.049751866460e-15
   152    8.282651670583e-03
   153   -2.028947096518e-03
   154    1.930145448302e-03
   155    3.347468691193e-03
   156    1.712743562553e-03
   157   -1.386269081152e-03
   158   -2.002885514333e-14
   159   -8.246573042277e-03
   160    1.907601381666e-03
   161   -7.280566069536e-03
   162   -3.938755162660e-14
   163   -9.887296419004e-03
   164    3.932206925745e-02
   165    4.449301430919e-02
   166   -5.812425578821e-14
   167    4.901543672784e-01
   168    8.761712631165e-01
   169    4.646094640658e-01
   170    3.158208306575e-13
   171   -1.005787559596e-03
   172    7.372172199630e-15
   173   -3.122661518520e-15
   174   -1.412971430501e-03
   175   -1.151542611668e-02
   176   -7.223190194936e-03
   177   -1.253637047923e-02
   178    1.734942402622e-02
   179    1.269384636459e-03
   180   -2.265826587694e-14
   181    3.861906697889e-02
   182    1.829012748078e-02
   183    1.586855547716e-03
   184   -2.654293809774e-14
   185    2.353275888034e-01
   186    6.834031823989e-03
   187    4.708046377415e-02
   188   -1.713268311155e-14
   189   -1.627226723773e+00
   190    1.473318549225e+00
   191    8.135820425661e-01
   192   -4.722195498157e-13
   193   -4.228789494117e-03
   194   -5.949262759484e-15
   195   -1.068471787514e-14
   196   -1.794273378725e-03
   197    5.425156809448e-03
   198    9.225446838436e-04
   199    6.169592306346e-03
   200   -9.806185900162e-02
   201   -7.058662084092e-01
   202   -2.923230439664e-03
   203    4.784610107112e-03
   204   -6.239154517256e-15
[5D]
