[Molden Format]
[Atoms] (Angs)
  C      1    6     -0.00714236     -1.70213747     -0.00000000
  H      2    1     -2.06882847     -1.44022412      0.00000000
  H      3    1     -0.12337987     -2.77567521      0.00000000
  H      4    1      0.04651892      1.98813947     -0.00000000
  C      5    6     -1.21953563      0.40211669      0.00000000
  O      6    8     -2.25921553      1.03043814      0.00000000
  C      7    6      1.28797806      0.34644937     -0.00000000
  O      8    8      2.31273661      1.00537216     -0.00000000
  N      9    7      0.03446295      0.97739857     -0.00000000
  N     10    7     -1.17287765     -0.98229824      0.00000000
  C     11    6      1.20107039     -1.10433419     -0.00000000
  H     12    1      2.11220096     -1.67699125     -0.00000000
[GTO]
1    0
S    6    1.000000
   4.56324000E+03    1.96665000E-03 
   6.82024000E+02    1.52306000E-02 
   1.54973000E+02    7.61269000E-02 
   4.44553000E+01    2.60801000E-01 
   1.30290000E+01    6.16462000E-01 
   1.82773000E+00    2.21006000E-01 
SP   3    1.000000
   2.09642000E+01    1.14660000E-01   4.02487000E-02 
   4.80331000E+00    9.19999000E-01   2.37594000E-01 
   1.45933000E+00   -3.03068000E-03   8.15854000E-01 
SP   1    1.000000
   4.83456000E-01    1.00000000E+00   1.00000000E+00 
SP   1    1.000000
   1.45585000E-01    1.00000000E+00   1.00000000E+00 
SP   1    1.000000
   4.38000000E-02    1.00000000E+00   1.00000000E+00 
D    1    1.000000
   6.26000000E-01    1.00000000E+00 

2    0
S    3    1.000000
   3.38650000E+01    2.54938000E-02 
   5.09479000E+00    1.90373000E-01 
   1.15879000E+00    8.52161000E-01 
S    1    1.000000
   3.25840000E-01    1.00000000E+00 
S    1    1.000000
   1.02741000E-01    1.00000000E+00 
S    1    1.000000
   3.60000000E-02    1.00000000E+00 
P    1    1.000000
   7.50000000E-01    1.00000000E+00 

3    0
S    3    1.000000
   3.38650000E+01    2.54938000E-02 
   5.09479000E+00    1.90373000E-01 
   1.15879000E+00    8.52161000E-01 
S    1    1.000000
   3.25840000E-01    1.00000000E+00 
S    1    1.000000
   1.02741000E-01    1.00000000E+00 
S    1    1.000000
   3.60000000E-02    1.00000000E+00 
P    1    1.000000
   7.50000000E-01    1.00000000E+00 

4    0
S    3    1.000000
   3.38650000E+01    2.54938000E-02 
   5.09479000E+00    1.90373000E-01 
   1.15879000E+00    8.52161000E-01 
S    1    1.000000
   3.25840000E-01    1.00000000E+00 
S    1    1.000000
   1.02741000E-01    1.00000000E+00 
S    1    1.000000
   3.60000000E-02    1.00000000E+00 
P    1    1.000000
   7.50000000E-01    1.00000000E+00 

5    0
S    6    1.000000
   4.56324000E+03    1.96665000E-03 
   6.82024000E+02    1.52306000E-02 
   1.54973000E+02    7.61269000E-02 
   4.44553000E+01    2.60801000E-01 
   1.30290000E+01    6.16462000E-01 
   1.82773000E+00    2.21006000E-01 
SP   3    1.000000
   2.09642000E+01    1.14660000E-01   4.02487000E-02 
   4.80331000E+00    9.19999000E-01   2.37594000E-01 
   1.45933000E+00   -3.03068000E-03   8.15854000E-01 
SP   1    1.000000
   4.83456000E-01    1.00000000E+00   1.00000000E+00 
SP   1    1.000000
   1.45585000E-01    1.00000000E+00   1.00000000E+00 
SP   1    1.000000
   4.38000000E-02    1.00000000E+00   1.00000000E+00 
D    1    1.000000
   6.26000000E-01    1.00000000E+00 

6    0
S    6    1.000000
   8.58850000E+03    1.89515000E-03 
   1.29723000E+03    1.43859000E-02 
   2.99296000E+02    7.07320000E-02 
   8.73771000E+01    2.40001000E-01 
   2.56789000E+01    5.94797000E-01 
   3.74004000E+00    2.80802000E-01 
SP   3    1.000000
   4.21175000E+01    1.13889000E-01   3.65114000E-02 
   9.62837000E+00    9.20811000E-01   2.37153000E-01 
   2.85332000E+00   -3.27447000E-03   8.19702000E-01 
SP   1    1.000000
   9.05661000E-01    1.00000000E+00   1.00000000E+00 
SP   1    1.000000
   2.55611000E-01    1.00000000E+00   1.00000000E+00 
SP   1    1.000000
   8.45000000E-02    1.00000000E+00   1.00000000E+00 
D    1    1.000000
   1.29200000E+00    1.00000000E+00 

7    0
S    6    1.000000
   4.56324000E+03    1.96665000E-03 
   6.82024000E+02    1.52306000E-02 
   1.54973000E+02    7.61269000E-02 
   4.44553000E+01    2.60801000E-01 
   1.30290000E+01    6.16462000E-01 
   1.82773000E+00    2.21006000E-01 
SP   3    1.000000
   2.09642000E+01    1.14660000E-01   4.02487000E-02 
   4.80331000E+00    9.19999000E-01   2.37594000E-01 
   1.45933000E+00   -3.03068000E-03   8.15854000E-01 
SP   1    1.000000
   4.83456000E-01    1.00000000E+00   1.00000000E+00 
SP   1    1.000000
   1.45585000E-01    1.00000000E+00   1.00000000E+00 
SP   1    1.000000
   4.38000000E-02    1.00000000E+00   1.00000000E+00 
D    1    1.000000
   6.26000000E-01    1.00000000E+00 

8    0
S    6    1.000000
   8.58850000E+03    1.89515000E-03 
   1.29723000E+03    1.43859000E-02 
   2.99296000E+02    7.07320000E-02 
   8.73771000E+01    2.40001000E-01 
   2.56789000E+01    5.94797000E-01 
   3.74004000E+00    2.80802000E-01 
SP   3    1.000000
   4.21175000E+01    1.13889000E-01   3.65114000E-02 
   9.62837000E+00    9.20811000E-01   2.37153000E-01 
   2.85332000E+00   -3.27447000E-03   8.19702000E-01 
SP   1    1.000000
   9.05661000E-01    1.00000000E+00   1.00000000E+00 
SP   1    1.000000
   2.55611000E-01    1.00000000E+00   1.00000000E+00 
SP   1    1.000000
   8.45000000E-02    1.00000000E+00   1.00000000E+00 
D    1    1.000000
   1.29200000E+00    1.00000000E+00 

9    0
S    6    1.000000
   6.29348000E+03    1.96979000E-03 
   9.49044000E+02    1.49613000E-02 
   2.18776000E+02    7.35006000E-02 
   6.36916000E+01    2.48937000E-01 
   1.88282000E+01    6.02460000E-01 
   2.72023000E+00    2.56202000E-01 
SP   3    1.000000
   3.06331000E+01    1.11906000E-01   3.83119000E-02 
   7.02614000E+00    9.21666000E-01   2.37403000E-01 
   2.11205000E+00   -2.56919000E-03   8.17592000E-01 
SP   1    1.000000
   6.84009000E-01    1.00000000E+00   1.00000000E+00 
SP   1    1.000000
   2.00878000E-01    1.00000000E+00   1.00000000E+00 
SP   1    1.000000
   6.39000000E-02    1.00000000E+00   1.00000000E+00 
D    1    1.000000
   9.13000000E-01    1.00000000E+00 

10    0
S    6    1.000000
   6.29348000E+03    1.96979000E-03 
   9.49044000E+02    1.49613000E-02 
   2.18776000E+02    7.35006000E-02 
   6.36916000E+01    2.48937000E-01 
   1.88282000E+01    6.02460000E-01 
   2.72023000E+00    2.56202000E-01 
SP   3    1.000000
   3.06331000E+01    1.11906000E-01   3.83119000E-02 
   7.02614000E+00    9.21666000E-01   2.37403000E-01 
   2.11205000E+00   -2.56919000E-03   8.17592000E-01 
SP   1    1.000000
   6.84009000E-01    1.00000000E+00   1.00000000E+00 
SP   1    1.000000
   2.00878000E-01    1.00000000E+00   1.00000000E+00 
SP   1    1.000000
   6.39000000E-02    1.00000000E+00   1.00000000E+00 
D    1    1.000000
   9.13000000E-01    1.00000000E+00 

11    0
S    6    1.000000
   4.56324000E+03    1.96665000E-03 
   6.82024000E+02    1.52306000E-02 
   1.54973000E+02    7.61269000E-02 
   4.44553000E+01    2.60801000E-01 
   1.30290000E+01    6.16462000E-01 
   1.82773000E+00    2.21006000E-01 
SP   3    1.000000
   2.09642000E+01    1.14660000E-01   4.02487000E-02 
   4.80331000E+00    9.19999000E-01   2.37594000E-01 
   1.45933000E+00   -3.03068000E-03   8.15854000E-01 
SP   1    1.000000
   4.83456000E-01    1.00000000E+00   1.00000000E+00 
SP   1    1.000000
   1.45585000E-01    1.00000000E+00   1.00000000E+00 
SP   1    1.000000
   4.38000000E-02    1.00000000E+00   1.00000000E+00 
D    1    1.000000
   6.26000000E-01    1.00000000E+00 

12    0
S    3    1.000000
   3.38650000E+01    2.54938000E-02 
   5.09479000E+00    1.90373000E-01 
   1.15879000E+00    8.52161000E-01 
S    1    1.000000
   3.25840000E-01    1.00000000E+00 
S    1    1.000000
   1.02741000E-01    1.00000000E+00 
S    1    1.000000
   3.60000000E-02    1.00000000E+00 
P    1    1.000000
   7.50000000E-01    1.00000000E+00 

[MO]
Sym=X
Ene= -0.035413
Spin=Alpha
Occup=1
     1   -7.070355972875e-06
     2   -1.102517102946e-05
     3   -4.572755903718e-06
     4   -1.820710449776e-05
     5   -3.688721088943e-16
     6    3.158459687120e-05
     7    3.010528823256e-05
     8   -5.640729962217e-05
     9    1.557805542435e-15
    10   -1.262050954069e-04
    11    5.358389498617e-05
    12   -4.360266393315e-05
    13   -1.506551386432e-15
    14    1.799406881214e-03
    15    4.481277685421e-04
    16   -3.994349849455e-04
    17   -8.359996142397e-15
    18   -4.040252084947e-07
    19    8.826602751641e-17
    20    1.210713838091e-16
    21    1.437925928687e-05
    22    5.163507233805e-06
    23    1.397467812549e-06
    24    3.484369904185e-05
    25    9.107215598370e-05
    26   -1.031016897043e-04
    27    1.166746635351e-05
    28   -8.221859397395e-06
    29   -7.209608071018e-17
    30   -6.122999867026e-06
    31    3.839658741747e-05
    32   -2.059008866049e-04
    33   -1.088635606524e-03
    34   -6.080373908443e-07
    35    1.121824504895e-05
    36    6.736406194255e-16
    37    2.946722053697e-06
    38    6.930475677161e-05
    39    4.529865428573e-04
    40    1.225727490272e-03
    41    1.281256774131e-05
    42   -3.142608903340e-07
    43    8.498052074693e-16
    44    2.060028346204e-06
    45   -8.303774350238e-05
    46   -5.290507180607e-05
    47    3.446567057322e-05
    48   -8.983492062114e-16
    49    3.421757429231e-04
    50   -3.504471049663e-04
    51    2.142307689632e-04
    52    4.135380915327e-15
    53   -7.419179319856e-05
    54   -5.813169164460e-04
    55    3.772858157554e-04
    56   -4.579571220946e-15
    57    5.630293734602e-04
    58    4.917192152140e-04
    59   -9.081752518658e-04
    60   -6.300006555297e-15
    61   -5.436521568149e-05
    62   -8.566762286091e-16
    63   -6.205600714763e-16
    64    9.278056405664e-05
    65   -1.780108929465e-04
    66    5.514636946179e-01
    67    4.716815703360e-01
    68    1.564217086313e-03
    69   -9.768865538792e-04
    70    1.916967626379e-16
    71    5.590588787106e-03
    72   -6.400012572929e-04
    73    3.887712531047e-04
    74   -3.348497405841e-16
    75   -1.465407123160e-03
    76    1.117122851898e-04
    77   -9.067115392527e-05
    78   -1.068202661724e-15
    79    1.440231709912e-03
    80    5.484556046224e-05
    81    3.453750288542e-05
    82    2.043934378672e-15
    83   -9.053000587365e-05
    84   -3.058508630257e-16
    85    2.642133806023e-16
    86   -6.328394386429e-05
    87    5.929326291989e-05
    88   -3.020934480781e-06
    89   -3.701594878475e-06
    90   -3.747763061623e-07
    91   -5.638768976233e-07
    92   -2.334096555456e-16
    93    1.028282970649e-05
    94    2.982147959880e-05
    95   -1.850684007851e-05
    96    2.654022825932e-15
    97   -2.107191957057e-04
    98    2.219084234822e-04
    99    5.080535507741e-06
   100   -3.658869739816e-15
   101    1.266914837827e-03
   102   -1.316437979120e-04
   103   -3.260259228469e-04
   104   -1.796226363784e-14
   105    6.532559256124e-06
   106   -2.537132576011e-17
   107    3.102233639429e-17
   108   -1.883484959695e-06
   109   -4.395449303774e-06
   110   -7.296252210839e-06
   111   -2.031068790954e-06
   112    1.858083498908e-05
   113   -2.358756357187e-05
   114    1.467545840852e-15
   115   -4.050660873853e-05
   116    2.547101100178e-05
   117   -2.831167978946e-05
   118   -1.171129788262e-15
   119   -3.364296912303e-05
   120    1.422379179266e-05
   121   -1.734598356019e-05
   122   -1.869317731710e-15
   123   -3.790576945960e-04
   124    1.093160769070e-04
   125    1.235337554751e-04
   126    7.118612426098e-15
   127    4.852343288311e-07
   128    4.873617909698e-16
   129    1.067070479576e-15
   130   -2.078623005303e-06
   131    1.510736966942e-06
   132    5.144070430811e-06
   133    1.009863909734e-05
   134    1.151204873747e-05
   135   -2.629775547959e-05
   136    4.621811416452e-16
   137   -5.651221842546e-05
   138   -3.171802534326e-05
   139   -3.434407174786e-05
   140   -1.033683260237e-17
   141    2.600775108328e-04
   142    7.121892400072e-05
   143   -3.631624731611e-04
   144   -2.190718461088e-15
   145   -7.882455343407e-05
   146    4.727967092111e-04
   147   -7.050919709678e-04
   148    1.224951390429e-14
   149   -6.577769689257e-06
   150    2.120973939154e-16
   151   -7.246397322838e-16
   152    2.108911291204e-05
   153    1.112411738933e-05
   154   -2.866608429078e-06
   155   -3.715016733158e-06
   156   -1.314897029962e-06
   157   -2.089806141043e-05
   158   -6.522115995028e-16
   159   -1.264000000802e-05
   160   -2.749132646397e-05
   161    4.539712649625e-06
   162    1.106687549222e-16
   163    3.722489146115e-04
   164    2.225511229909e-04
   165    6.585424326680e-05
   166   -8.421313816220e-16
   167   -3.522161443581e-04
   168    3.193987984611e-04
   169   -4.008303798059e-04
   170    7.493767189889e-15
   171   -9.046487801151e-06
   172   -2.627770232024e-16
   173    2.792807259221e-16
   174   -1.949755516875e-05
   175   -1.434365426084e-05
   176   -5.784545192512e-06
   177   -1.071472168137e-05
   178    1.891917333051e-05
   179   -2.048983275765e-05
   180   -1.341076178870e-15
   181    4.335168779086e-05
   182    2.134979803316e-05
   183   -1.804161577841e-05
   184    5.424004239263e-16
   185    1.094889518921e-04
   186    8.698034603629e-05
   187   -6.877330412936e-05
   188   -7.129361508474e-16
   189   -2.104669903116e-03
   190    1.447721249313e-03
   191   -7.511458918723e-04
   192    1.538800735726e-14
   193    4.029353146709e-06
   194   -3.015618928276e-17
   195   -3.591925398220e-16
   196   -5.405594861772e-06
   197    2.311293421127e-06
   198    2.013031301904e-06
   199   -1.078914812915e-06
   200   -2.428986843551e-04
   201   -1.894369412988e-03
   202   -6.629577135600e-06
   203    4.280537629131e-06
   204    8.198888410218e-16
Sym=X
Ene= 0.035413
Spin=Alpha
Occup=0
     1    6.394066725351e-08
     2   -6.444192540317e-07
     3    2.616407794593e-06
     4    5.266881739368e-08
     5    5.322113659562e-16
     6    8.415885538983e-06
     7   -1.088952104667e-05
     8    4.773841844283e-07
     9   -9.163582169858e-16
    10   -6.207646739071e-04
    11   -1.310257468989e-04
    12   -2.606081212088e-04
    13    5.652226493899e-15
    14    1.956533967276e-04
    15    3.240668933124e-04
    16   -5.934650578542e-04
    17   -2.184115742075e-14
    18    3.654672521272e-07
    19    8.858635013559e-16
    20    9.422431179517e-16
    21   -5.019241338406e-06
    22    4.894162832268e-06
    23    1.372864414165e-07
    24    9.256547175619e-06
    25   -3.927837044294e-05
    26    8.388438355014e-05
    27   -3.353224656850e-06
    28    9.145558175482e-07
    29   -6.509722885884e-16
    30   -2.047920699790e-06
    31    4.606861586641e-06
    32   -1.296860373184e-04
    33   -3.141785431714e-04
    34    5.603410427696e-06
    35    2.433887751992e-07
    36    9.242799566299e-16
    37    1.258365954347e-06
    38    7.545478493837e-05
    39    6.752063797795e-05
    40    7.222300359296e-05
    41   -1.115468107801e-05
    42   -7.152919863913e-06
    43    4.360850911203e-16
    44   -6.522411877882e-07
    45    1.612638464611e-06
    46    6.990958234812e-06
    47    3.419722397255e-07
    48   -9.109883996940e-16
    49   -9.617355773680e-06
    50   -3.247867674616e-05
    51   -3.246471271197e-06
    52    2.274468882631e-15
    53   -3.318878388946e-04
    54   -1.693787664850e-04
    55    4.889924668990e-06
    56   -1.839115852963e-15
    57   -3.981587111121e-04
    58   -4.294918438815e-05
    59   -1.659420866039e-04
    60   -9.858914749820e-15
    61    5.155124573424e-06
    62   -3.411810258546e-16
    63    1.374911141638e-15
    64   -7.449444624338e-06
    65    1.645042573579e-07
    66    1.239833724611e-05
    67    1.301442625402e-05
    68    1.579495939327e-07
    69   -7.118478705816e-08
    70    2.289195251587e-16
    71   -8.330900304440e-06
    72   -4.024218443914e-06
    73    1.571777774216e-07
    74    2.071622078317e-16
    75    2.719933221104e-05
    76    1.715572550977e-05
    77    2.929187071644e-06
    78   -2.439334202500e-15
    79   -2.794112975506e-04
    80   -1.474671456033e-04
    81    4.476905950656e-05
    82    3.060688690796e-15
    83    4.454353463353e-07
    84   -3.374157814896e-16
    85    2.073183310178e-16
    86    3.111573063626e-07
    87   -1.989883579091e-08
    88    7.954802881320e-06
    89   -7.660457973099e-05
    90    4.976213429792e-05
    91    3.871062353458e-05
    92   -1.065546451782e-15
    93    3.080790616456e-04
    94    3.574689148304e-04
    95    2.230921359347e-04
    96    1.630200917620e-15
    97   -1.678855313398e-04
    98    6.113969463540e-04
    99    5.388517665623e-04
   100    2.308028353989e-16
   101   -2.010261894235e-03
   102   -7.408403773432e-04
   103    4.874982568854e-04
   104    1.449459993540e-15
   105   -6.039774265860e-05
   106    9.548736192636e-16
   107   -6.658842410882e-16
   108    8.250154874206e-05
   109    1.979961092491e-04
   110    5.514698679849e-01
   111    4.716941913269e-01
   112   -1.596077440717e-03
   113   -9.624766294739e-04
   114    1.684329109843e-15
   115    5.515090068357e-03
   116    6.815981334101e-04
   117    3.959531198481e-04
   118   -2.508168804420e-15
   119   -1.397737968725e-03
   120   -1.234602931346e-04
   121   -6.169639876192e-05
   122    3.522033175364e-15
   123    1.226138012179e-03
   124    2.290011783158e-05
   125    1.527725698069e-05
   126   -6.201681563330e-15
   127   -1.205258356036e-04
   128    8.936228251565e-16
   129    9.500296326228e-16
   130   -6.327236410131e-05
   131   -7.881120383771e-05
   132    4.963803863862e-07
   133    2.905283440803e-06
   134   -1.153876868184e-05
   135    2.992627495758e-06
   136    6.268985002526e-16
   137   -4.304272042393e-05
   138    3.317243837486e-05
   139    3.002059551200e-06
   140   -4.742871863120e-16
   141    3.712366631593e-04
   142   -9.333072449665e-05
   143   -3.038982031701e-04
   144    1.702030694075e-16
   145   -6.768871986143e-05
   146   -6.741968049996e-04
   147   -1.372340944021e-04
   148    2.472972706856e-15
   149   -9.904870747936e-06
   150    5.979009450159e-16
   151   -6.833741086395e-16
   152    2.167315412743e-05
   153   -1.237630843913e-05
   154   -3.933599284143e-08
   155    6.326547320408e-07
   156    6.050649893027e-07
   157    4.205302888590e-07
   158   -1.247802449484e-15
   159   -9.406859931699e-06
   160   -1.107039423916e-06
   161   -4.295027133826e-07
   162    2.843489882276e-15
   163    1.537924605439e-04
   164    8.042653518645e-05
   165    1.747147501732e-05
   166   -7.113891012851e-15
   167    2.254928228402e-04
   168   -5.572703895480e-05
   169    6.251997347305e-06
   170    1.839012530188e-14
   171    8.062981283604e-07
   172   -1.719115836745e-15
   173    1.384113278654e-16
   174    6.444496415132e-07
   175   -4.012894193246e-07
   176    3.269160757140e-07
   177    8.237004137551e-07
   178   -3.373369765361e-06
   179   -1.538534006470e-05
   180    6.026062095437e-16
   181   -2.708551256789e-05
   182    3.203122372600e-06
   183    7.838081018119e-05
   184   -5.815144087288e-16
   185    7.762321877049e-04
   186   -6.077667670724e-04
   187    1.707280415924e-04
   188   -4.327560921569e-15
   189    1.476890471245e-03
   190    1.260469372413e-04
   191    1.148377904824e-03
   192    1.413945233392e-14
   193   -7.150180769628e-06
   194    9.664347589317e-16
   195    9.762864790076e-16
   196   -2.968431742231e-05
   197    2.581882385555e-05
   198   -2.936558043700e-06
   199    1.353598548751e-04
   200    1.934960843363e-04
   201    3.486557508839e-04
   202   -2.008919188634e-05
   203    1.190887694295e-05
   204   -7.786693664404e-16
[5D]
