[Molden Format]
[Atoms] (Angs)
  C      1    6     -0.00714236     -1.70213747     -0.00000000
  H      2    1     -2.06882847     -1.44022412      0.00000000
  H      3    1     -0.12337987     -2.77567521      0.00000000
  H      4    1      0.04651892      1.98813947     -0.00000000
  C      5    6     -1.21953563      0.40211669      0.00000000
  O      6    8     -2.25921553      1.03043814      0.00000000
  C      7    6      1.28797806      0.34644937     -0.00000000
  O      8    8      2.31273661      1.00537216     -0.00000000
  N      9    7      0.03446295      0.97739857     -0.00000000
  N     10    7     -1.17287765     -0.98229824      0.00000000
  C     11    6      1.20107039     -1.10433419     -0.00000000
  H     12    1      2.11220096     -1.67699125     -0.00000000
[GTO]
1    0
S    6    1.000000
   4.56324000E+03    1.96665000E-03 
   6.82024000E+02    1.52306000E-02 
   1.54973000E+02    7.61269000E-02 
   4.44553000E+01    2.60801000E-01 
   1.30290000E+01    6.16462000E-01 
   1.82773000E+00    2.21006000E-01 
SP   3    1.000000
   2.09642000E+01    1.14660000E-01   4.02487000E-02 
   4.80331000E+00    9.19999000E-01   2.37594000E-01 
   1.45933000E+00   -3.03068000E-03   8.15854000E-01 
SP   1    1.000000
   4.83456000E-01    1.00000000E+00   1.00000000E+00 
SP   1    1.000000
   1.45585000E-01    1.00000000E+00   1.00000000E+00 
SP   1    1.000000
   4.38000000E-02    1.00000000E+00   1.00000000E+00 
D    1    1.000000
   6.26000000E-01    1.00000000E+00 

2    0
S    3    1.000000
   3.38650000E+01    2.54938000E-02 
   5.09479000E+00    1.90373000E-01 
   1.15879000E+00    8.52161000E-01 
S    1    1.000000
   3.25840000E-01    1.00000000E+00 
S    1    1.000000
   1.02741000E-01    1.00000000E+00 
S    1    1.000000
   3.60000000E-02    1.00000000E+00 
P    1    1.000000
   7.50000000E-01    1.00000000E+00 

3    0
S    3    1.000000
   3.38650000E+01    2.54938000E-02 
   5.09479000E+00    1.90373000E-01 
   1.15879000E+00    8.52161000E-01 
S    1    1.000000
   3.25840000E-01    1.00000000E+00 
S    1    1.000000
   1.02741000E-01    1.00000000E+00 
S    1    1.000000
   3.60000000E-02    1.00000000E+00 
P    1    1.000000
   7.50000000E-01    1.00000000E+00 

4    0
S    3    1.000000
   3.38650000E+01    2.54938000E-02 
   5.09479000E+00    1.90373000E-01 
   1.15879000E+00    8.52161000E-01 
S    1    1.000000
   3.25840000E-01    1.00000000E+00 
S    1    1.000000
   1.02741000E-01    1.00000000E+00 
S    1    1.000000
   3.60000000E-02    1.00000000E+00 
P    1    1.000000
   7.50000000E-01    1.00000000E+00 

5    0
S    6    1.000000
   4.56324000E+03    1.96665000E-03 
   6.82024000E+02    1.52306000E-02 
   1.54973000E+02    7.61269000E-02 
   4.44553000E+01    2.60801000E-01 
   1.30290000E+01    6.16462000E-01 
   1.82773000E+00    2.21006000E-01 
SP   3    1.000000
   2.09642000E+01    1.14660000E-01   4.02487000E-02 
   4.80331000E+00    9.19999000E-01   2.37594000E-01 
   1.45933000E+00   -3.03068000E-03   8.15854000E-01 
SP   1    1.000000
   4.83456000E-01    1.00000000E+00   1.00000000E+00 
SP   1    1.000000
   1.45585000E-01    1.00000000E+00   1.00000000E+00 
SP   1    1.000000
   4.38000000E-02    1.00000000E+00   1.00000000E+00 
D    1    1.000000
   6.26000000E-01    1.00000000E+00 

6    0
S    6    1.000000
   8.58850000E+03    1.89515000E-03 
   1.29723000E+03    1.43859000E-02 
   2.99296000E+02    7.07320000E-02 
   8.73771000E+01    2.40001000E-01 
   2.56789000E+01    5.94797000E-01 
   3.74004000E+00    2.80802000E-01 
SP   3    1.000000
   4.21175000E+01    1.13889000E-01   3.65114000E-02 
   9.62837000E+00    9.20811000E-01   2.37153000E-01 
   2.85332000E+00   -3.27447000E-03   8.19702000E-01 
SP   1    1.000000
   9.05661000E-01    1.00000000E+00   1.00000000E+00 
SP   1    1.000000
   2.55611000E-01    1.00000000E+00   1.00000000E+00 
SP   1    1.000000
   8.45000000E-02    1.00000000E+00   1.00000000E+00 
D    1    1.000000
   1.29200000E+00    1.00000000E+00 

7    0
S    6    1.000000
   4.56324000E+03    1.96665000E-03 
   6.82024000E+02    1.52306000E-02 
   1.54973000E+02    7.61269000E-02 
   4.44553000E+01    2.60801000E-01 
   1.30290000E+01    6.16462000E-01 
   1.82773000E+00    2.21006000E-01 
SP   3    1.000000
   2.09642000E+01    1.14660000E-01   4.02487000E-02 
   4.80331000E+00    9.19999000E-01   2.37594000E-01 
   1.45933000E+00   -3.03068000E-03   8.15854000E-01 
SP   1    1.000000
   4.83456000E-01    1.00000000E+00   1.00000000E+00 
SP   1    1.000000
   1.45585000E-01    1.00000000E+00   1.00000000E+00 
SP   1    1.000000
   4.38000000E-02    1.00000000E+00   1.00000000E+00 
D    1    1.000000
   6.26000000E-01    1.00000000E+00 

8    0
S    6    1.000000
   8.58850000E+03    1.89515000E-03 
   1.29723000E+03    1.43859000E-02 
   2.99296000E+02    7.07320000E-02 
   8.73771000E+01    2.40001000E-01 
   2.56789000E+01    5.94797000E-01 
   3.74004000E+00    2.80802000E-01 
SP   3    1.000000
   4.21175000E+01    1.13889000E-01   3.65114000E-02 
   9.62837000E+00    9.20811000E-01   2.37153000E-01 
   2.85332000E+00   -3.27447000E-03   8.19702000E-01 
SP   1    1.000000
   9.05661000E-01    1.00000000E+00   1.00000000E+00 
SP   1    1.000000
   2.55611000E-01    1.00000000E+00   1.00000000E+00 
SP   1    1.000000
   8.45000000E-02    1.00000000E+00   1.00000000E+00 
D    1    1.000000
   1.29200000E+00    1.00000000E+00 

9    0
S    6    1.000000
   6.29348000E+03    1.96979000E-03 
   9.49044000E+02    1.49613000E-02 
   2.18776000E+02    7.35006000E-02 
   6.36916000E+01    2.48937000E-01 
   1.88282000E+01    6.02460000E-01 
   2.72023000E+00    2.56202000E-01 
SP   3    1.000000
   3.06331000E+01    1.11906000E-01   3.83119000E-02 
   7.02614000E+00    9.21666000E-01   2.37403000E-01 
   2.11205000E+00   -2.56919000E-03   8.17592000E-01 
SP   1    1.000000
   6.84009000E-01    1.00000000E+00   1.00000000E+00 
SP   1    1.000000
   2.00878000E-01    1.00000000E+00   1.00000000E+00 
SP   1    1.000000
   6.39000000E-02    1.00000000E+00   1.00000000E+00 
D    1    1.000000
   9.13000000E-01    1.00000000E+00 

10    0
S    6    1.000000
   6.29348000E+03    1.96979000E-03 
   9.49044000E+02    1.49613000E-02 
   2.18776000E+02    7.35006000E-02 
   6.36916000E+01    2.48937000E-01 
   1.88282000E+01    6.02460000E-01 
   2.72023000E+00    2.56202000E-01 
SP   3    1.000000
   3.06331000E+01    1.11906000E-01   3.83119000E-02 
   7.02614000E+00    9.21666000E-01   2.37403000E-01 
   2.11205000E+00   -2.56919000E-03   8.17592000E-01 
SP   1    1.000000
   6.84009000E-01    1.00000000E+00   1.00000000E+00 
SP   1    1.000000
   2.00878000E-01    1.00000000E+00   1.00000000E+00 
SP   1    1.000000
   6.39000000E-02    1.00000000E+00   1.00000000E+00 
D    1    1.000000
   9.13000000E-01    1.00000000E+00 

11    0
S    6    1.000000
   4.56324000E+03    1.96665000E-03 
   6.82024000E+02    1.52306000E-02 
   1.54973000E+02    7.61269000E-02 
   4.44553000E+01    2.60801000E-01 
   1.30290000E+01    6.16462000E-01 
   1.82773000E+00    2.21006000E-01 
SP   3    1.000000
   2.09642000E+01    1.14660000E-01   4.02487000E-02 
   4.80331000E+00    9.19999000E-01   2.37594000E-01 
   1.45933000E+00   -3.03068000E-03   8.15854000E-01 
SP   1    1.000000
   4.83456000E-01    1.00000000E+00   1.00000000E+00 
SP   1    1.000000
   1.45585000E-01    1.00000000E+00   1.00000000E+00 
SP   1    1.000000
   4.38000000E-02    1.00000000E+00   1.00000000E+00 
D    1    1.000000
   6.26000000E-01    1.00000000E+00 

12    0
S    3    1.000000
   3.38650000E+01    2.54938000E-02 
   5.09479000E+00    1.90373000E-01 
   1.15879000E+00    8.52161000E-01 
S    1    1.000000
   3.25840000E-01    1.00000000E+00 
S    1    1.000000
   1.02741000E-01    1.00000000E+00 
S    1    1.000000
   3.60000000E-02    1.00000000E+00 
P    1    1.000000
   7.50000000E-01    1.00000000E+00 

[MO]
Sym=X
Ene= -0.495288
Spin=Alpha
Occup=1
     1   -1.950196330398e-03
     2   -3.467507946484e-03
     3   -2.995443979790e-03
     4   -1.019695465253e-02
     5    8.824863926973e-15
     6    1.590600262686e-02
     7   -8.073534532228e-03
     8   -1.625165941126e-02
     9    7.512955080293e-15
    10    3.570600136832e-02
    11    1.597450514393e-02
    12   -2.837371650149e-02
    13    1.751503492289e-14
    14    1.824164510130e+00
    15   -1.839021789508e-02
    16    2.017621595420e-01
    17   -1.151225588339e-13
    18   -6.259687546254e-03
    19    2.194443215804e-15
    20   -2.058349479877e-15
    21    2.118384943189e-03
    22   -8.844632992968e-04
    23   -5.164391585795e-03
    24   -9.474897089376e-03
    25   -5.872572682559e-03
    26   -7.375967549126e-02
    27    3.974891784667e-03
    28    2.482169388714e-03
    29    6.571385483390e-16
    30    5.890191306483e-03
    31    9.493653109957e-03
    32   -6.147803628483e-03
    33   -1.366171667742e-01
    34   -2.711492868242e-04
    35    1.945198174836e-03
    36    7.183578583370e-15
    37    3.193414158583e-03
    38   -4.157667993356e-03
    39   -2.713340849883e-01
    40   -7.251026471734e-01
    41   -4.218287588637e-03
    42   -1.152615286100e-02
    43    1.037930972240e-15
    44    2.533530179934e-03
    45    3.966399674237e-03
    46   -1.001063822006e-02
    47   -4.992686756074e-03
    48   -4.656536174478e-15
    49    1.001881456531e-03
    50   -1.556055750034e-02
    51   -9.968265390172e-03
    52   -9.825409080574e-16
    53   -8.654238540497e-02
    54    7.368021082214e-03
    55    6.024585416907e-02
    56   -3.653034063006e-14
    57   -1.006175760570e+00
    58   -3.108482599557e-01
    59    2.955633366411e-01
    60    2.385084365298e-14
    61   -8.397397142038e-03
    62    8.134738580393e-15
    63   -3.211180791440e-15
    64   -4.888536535063e-03
    65    3.318252700472e-03
    66   -3.299927525671e-03
    67   -5.726123798163e-03
    68    4.198498465218e-03
    69    6.313409670667e-03
    70   -2.272010573701e-15
    71    1.938236056306e-02
    72    7.565220600523e-03
    73    1.040474462901e-02
    74    7.439627779601e-15
    75    1.891179883924e-02
    76    4.744378963371e-03
    77    2.182799327097e-03
    78   -3.024261054508e-14
    79    7.110064316126e-02
    80    4.508284481333e-02
    81    9.665090229843e-03
    82    9.296959094846e-14
    83   -8.552760279291e-04
    84   -1.121928319141e-15
    85    1.235956688105e-15
    86    1.401298789415e-04
    87   -8.357901205551e-04
    88   -3.429541577512e-04
    89   -1.184563240696e-03
    90   -5.850156234974e-03
    91   -1.931081493059e-02
    92   -6.246424167200e-16
    93    3.109005191986e-02
    94   -1.492829506559e-02
    95   -2.958475933909e-02
    96    1.780254933298e-15
    97   -1.185879271462e-01
    98   -1.188206471885e-01
    99   -2.018584353934e-01
   100   -5.585330142159e-14
   101    1.915331598184e+00
   102   -1.223527135325e+00
   103   -1.070319905840e+00
   104   -3.071984408428e-13
   105   -2.253758096195e-02
   106   -1.573773799218e-15
   107    2.765510197779e-15
   108   -1.788320477748e-03
   109   -1.710417631556e-03
   110   -2.345823885958e-02
   111   -4.064140680243e-02
   112   -1.538488381351e-04
   113    2.089988244485e-02
   114    1.402031715812e-14
   115    1.411153184104e-01
   116    1.330063028665e-04
   117    2.784432185496e-02
   118    9.349352130343e-15
   119    2.748553879442e-01
   120   -6.419131114985e-02
   121   -2.497797410899e-03
   122    3.154003158716e-14
   123    5.831063583854e-01
   124    1.106347731031e-01
   125    5.740540806022e-02
   126    5.534389843716e-14
   127   -3.785705098632e-03
   128    2.048786833810e-15
   129   -6.529606003280e-17
   130    1.076632934912e-03
   131    2.281088352419e-03
   132   -1.806935703674e-02
   133   -3.127956105493e-02
   134    1.079158741519e-02
   135    2.180941550458e-02
   136    1.714032626376e-14
   137    9.818754324242e-02
   138    1.611817433857e-02
   139    3.217680814987e-02
   140    3.721062812378e-14
   141    2.579750120536e-01
   142    7.095297142672e-02
   143    5.706862649395e-02
   144   -1.522825498991e-15
   145    3.565029022934e-01
   146    1.950119537865e-01
   147    4.547501014186e-01
   148    4.451017859070e-14
   149   -5.367253849398e-03
   150   -2.971062760443e-16
   151   -2.649198983115e-15
   152   -1.280716526091e-04
   153   -2.850532576949e-03
   154   -7.650418953941e-03
   155   -1.324556651461e-02
   156   -9.975644990773e-04
   157    5.965481352927e-03
   158    4.771532813695e-15
   159    4.326493238740e-02
   160   -2.718330967313e-03
   161    8.617938404828e-03
   162   -3.247692573199e-16
   163    8.835603693930e-02
   164    1.554933921552e-02
   165    4.015387537979e-02
   166    3.963079169011e-15
   167    8.661034893404e-01
   168    1.686919397209e-01
   169    2.708306115783e-01
   170   -1.479393576142e-14
   171   -1.875045225524e-03
   172    7.159746339669e-16
   173    1.026005535485e-15
   174   -1.767643722318e-03
   175   -2.850847396164e-03
   176   -1.441345023602e-02
   177   -2.502855543441e-02
   178    1.732525504329e-02
   179    7.770412334146e-03
   180    2.053769731818e-15
   181    7.458135273887e-02
   182    2.372247639236e-02
   183    1.522427129903e-02
   184    5.854094366528e-15
   185    1.836581924156e-01
   186    9.431359108551e-02
   187   -1.589680072055e-02
   188   -8.315163746475e-15
   189   -2.594419240316e+00
   190    1.577231712234e+00
   191   -9.602856895480e-01
   192    2.800560736779e-13
   193   -8.984341778595e-03
   194    2.875095388175e-15
   195    5.399331114233e-16
   196   -4.212607088204e-03
   197    9.695344018118e-04
   198    7.856041746988e-03
   199    1.587159373171e-02
   200   -1.922304798265e-01
   201   -1.643838818089e+00
   202   -5.473174709590e-03
   203    1.623599108249e-03
   204   -1.664995218382e-15
Sym=X
Ene= 0.495288
Spin=Alpha
Occup=0
     1   -1.327311755323e-02
     2   -2.305229229107e-02
     3    1.075320384083e-02
     4   -2.409173730271e-02
     5    3.763912207702e-14
     6    7.069240314245e-02
     7    1.394612557567e-02
     8   -3.530606462311e-02
     9    8.365072943599e-14
    10    1.817595988253e-01
    11    4.848147988953e-02
    12   -1.670096654466e-01
    13    1.583750513897e-13
    14   -5.063904217870e+00
    15   -3.800436315034e-01
    16   -3.464247254388e+00
    17   -1.526408295906e-13
    18   -9.817265472912e-04
    19   -1.050077572960e-14
    20    3.007124668897e-16
    21    7.093924686573e-03
    22   -1.054560698441e-03
    23   -4.803094574354e-03
    24   -1.152677964462e-02
    25   -3.545069669675e-01
    26   -5.949287506647e-01
    27    7.640925685200e-03
    28    7.366064798152e-03
    29    6.801071576517e-15
    30    1.375177401919e-03
    31    1.086397441399e-03
    32   -3.943005201318e-01
    33   -3.173718975228e+00
    34    4.370648474197e-03
    35    7.522843728812e-03
    36    2.428454701984e-16
    37   -1.447838848918e-02
    38   -2.705400127086e-02
    39   -4.284470674047e-01
    40   -8.223422462727e-01
    41   -7.544096614369e-04
    42   -1.081263154001e-02
    43    2.898082830679e-15
    44   -2.730890088182e-04
    45   -8.264302970281e-04
    46    2.606108860724e-04
    47    4.948953879317e-03
    48   -2.267252909879e-14
    49    1.758532634913e-02
    50    4.872775293170e-03
    51    2.686603262369e-03
    52   -2.534214947598e-14
    53   -1.277502523940e-01
    54   -9.534414894788e-02
    55    6.202557282113e-02
    56   -1.273684545989e-13
    57    2.141127704214e+00
    58    5.473329921762e-01
    59   -3.138154579851e-01
    60   -5.310583257661e-13
    61   -3.419481074080e-03
    62   -3.597109907524e-16
    63    4.198820601662e-15
    64   -5.969514913737e-03
    65    1.268769351741e-02
    66   -3.708952679698e-03
    67   -6.385359808949e-03
    68   -7.765915883689e-03
    69    4.734436055560e-03
    70    2.853621378913e-14
    71    1.986282254546e-02
    72   -9.290033945986e-03
    73    6.122090454246e-03
    74    3.213556618845e-14
    75    4.852213307004e-02
    76   -2.904562983182e-03
    77    6.069565091114e-04
    78    7.623806441203e-14
    79   -3.467425742149e-01
    80   -1.880725352534e-01
    81    1.381326818716e-01
    82    6.846472243522e-14
    83   -1.174683259379e-03
    84    4.179298520991e-16
    85   -8.856366751053e-16
    86    1.098520076966e-03
    87   -1.532191447768e-03
    88   -6.342992638981e-03
    89   -1.135741854974e-02
    90    1.523025890538e-02
    91    8.260945838767e-04
    92   -2.699746971335e-14
    93    3.347423168029e-02
    94    2.792468344631e-02
    95    9.742476247059e-03
    96   -2.609843924460e-14
    97    1.548089066801e-01
    98    2.314411999211e-01
    99    1.371101935663e-01
   100   -2.894326929258e-14
   101   -5.698011901894e+00
   102    2.035766473282e+00
   103    9.244951526040e-01
   104    2.999630953618e-13
   105    6.230358788809e-03
   106    1.402714729258e-15
   107    7.846222303555e-15
   108   -8.694484838649e-03
   109   -9.240301027661e-03
   110    1.274332114806e-02
   111    2.188541631674e-02
   112   -1.249980604806e-02
   113    3.254500440119e-02
   114    1.065934387503e-15
   115   -7.436603639266e-02
   116   -1.851215470691e-02
   117    4.431547684538e-02
   118    2.819827813162e-14
   119   -1.978223499722e-01
   120    4.039540645631e-02
   121    7.198789203097e-02
   122    2.303989680079e-14
   123   -5.823783289158e-01
   124    9.859736323602e-03
   125    1.835728366298e-03
   126   -3.539741113327e-14
   127    6.173711397465e-04
   128   -2.172952049332e-15
   129    3.643923852948e-15
   130    1.885564819745e-03
   131   -2.606595908420e-04
   132   -1.040642773583e-02
   133   -1.803004523102e-02
   134   -1.206173838310e-02
   135    2.334433153157e-02
   136    1.469449000158e-14
   137    5.769766845894e-02
   138   -1.692538753239e-02
   139    3.664937281603e-02
   140    2.981471117174e-14
   141    2.015388819123e-01
   142   -5.196463116001e-02
   143    8.905959303219e-03
   144    1.003380359982e-13
   145    1.316240206889e+00
   146   -1.809568253756e-02
   147    3.466341410377e-01
   148    1.447099202419e-15
   149    4.631675878412e-04
   150    2.465762691639e-16
   151    3.516269801680e-15
   152    7.756752534348e-03
   153    6.440362762946e-04
   154   -1.208576526560e-02
   155   -2.078617838235e-02
   156   -2.416368132812e-02
   157   -4.928069375986e-03
   158   -2.673840065569e-14
   159    6.417472058564e-02
   160   -3.778191467614e-02
   161   -6.767250689061e-03
   162   -1.655531761628e-14
   163    2.173862111189e-01
   164   -2.384773161690e-02
   165    1.127686758728e-02
   166   -1.468482059065e-13
   167    1.242656397442e+00
   168   -3.693829152968e-01
   169    9.291705911954e-02
   170    5.540868691789e-13
   171   -1.559548828754e-03
   172    4.076883490018e-15
   173   -5.717057614390e-15
   174   -1.868373563895e-03
   175   -5.080680685356e-03
   176    5.641258474063e-03
   177    9.905456937747e-03
   178   -1.459742407844e-02
   179    4.208876917770e-03
   180   -4.422047175418e-14
   181   -2.773350136817e-02
   182   -1.424423242172e-02
   183   -4.142335611900e-05
   184   -4.824696974888e-14
   185   -6.649628651758e-02
   186   -1.559413169870e-01
   187    1.277927446635e-01
   188   -1.522899936321e-13
   189    8.127753743078e+00
   190   -3.865474569372e+00
   191    2.787116017417e+00
   192   -1.026614092494e-13
   193   -6.061448384961e-04
   194   -6.209360680378e-15
   195   -9.740798026739e-15
   196   -7.217835899114e-04
   197    1.102608219111e-02
   198   -1.602517681187e-02
   199   -4.542592956898e-02
   200    4.101682042960e-01
   201    3.544183043609e+00
   202    4.793634884571e-03
   203    1.486858393927e-03
   204   -2.931367637752e-15
[5D]
