[Molden Format]
[Atoms] (Angs)
  C      1    6     -0.00714236     -1.70213747     -0.00000000
  H      2    1     -2.06882847     -1.44022412      0.00000000
  H      3    1     -0.12337987     -2.77567521      0.00000000
  H      4    1      0.04651892      1.98813947     -0.00000000
  C      5    6     -1.21953563      0.40211669      0.00000000
  O      6    8     -2.25921553      1.03043814      0.00000000
  C      7    6      1.28797806      0.34644937     -0.00000000
  O      8    8      2.31273661      1.00537216     -0.00000000
  N      9    7      0.03446295      0.97739857     -0.00000000
  N     10    7     -1.17287765     -0.98229824      0.00000000
  C     11    6      1.20107039     -1.10433419     -0.00000000
  H     12    1      2.11220096     -1.67699125     -0.00000000
[GTO]
1    0
S    6    1.000000
   4.56324000E+03    1.96665000E-03 
   6.82024000E+02    1.52306000E-02 
   1.54973000E+02    7.61269000E-02 
   4.44553000E+01    2.60801000E-01 
   1.30290000E+01    6.16462000E-01 
   1.82773000E+00    2.21006000E-01 
SP   3    1.000000
   2.09642000E+01    1.14660000E-01   4.02487000E-02 
   4.80331000E+00    9.19999000E-01   2.37594000E-01 
   1.45933000E+00   -3.03068000E-03   8.15854000E-01 
SP   1    1.000000
   4.83456000E-01    1.00000000E+00   1.00000000E+00 
SP   1    1.000000
   1.45585000E-01    1.00000000E+00   1.00000000E+00 
SP   1    1.000000
   4.38000000E-02    1.00000000E+00   1.00000000E+00 
D    1    1.000000
   6.26000000E-01    1.00000000E+00 

2    0
S    3    1.000000
   3.38650000E+01    2.54938000E-02 
   5.09479000E+00    1.90373000E-01 
   1.15879000E+00    8.52161000E-01 
S    1    1.000000
   3.25840000E-01    1.00000000E+00 
S    1    1.000000
   1.02741000E-01    1.00000000E+00 
S    1    1.000000
   3.60000000E-02    1.00000000E+00 
P    1    1.000000
   7.50000000E-01    1.00000000E+00 

3    0
S    3    1.000000
   3.38650000E+01    2.54938000E-02 
   5.09479000E+00    1.90373000E-01 
   1.15879000E+00    8.52161000E-01 
S    1    1.000000
   3.25840000E-01    1.00000000E+00 
S    1    1.000000
   1.02741000E-01    1.00000000E+00 
S    1    1.000000
   3.60000000E-02    1.00000000E+00 
P    1    1.000000
   7.50000000E-01    1.00000000E+00 

4    0
S    3    1.000000
   3.38650000E+01    2.54938000E-02 
   5.09479000E+00    1.90373000E-01 
   1.15879000E+00    8.52161000E-01 
S    1    1.000000
   3.25840000E-01    1.00000000E+00 
S    1    1.000000
   1.02741000E-01    1.00000000E+00 
S    1    1.000000
   3.60000000E-02    1.00000000E+00 
P    1    1.000000
   7.50000000E-01    1.00000000E+00 

5    0
S    6    1.000000
   4.56324000E+03    1.96665000E-03 
   6.82024000E+02    1.52306000E-02 
   1.54973000E+02    7.61269000E-02 
   4.44553000E+01    2.60801000E-01 
   1.30290000E+01    6.16462000E-01 
   1.82773000E+00    2.21006000E-01 
SP   3    1.000000
   2.09642000E+01    1.14660000E-01   4.02487000E-02 
   4.80331000E+00    9.19999000E-01   2.37594000E-01 
   1.45933000E+00   -3.03068000E-03   8.15854000E-01 
SP   1    1.000000
   4.83456000E-01    1.00000000E+00   1.00000000E+00 
SP   1    1.000000
   1.45585000E-01    1.00000000E+00   1.00000000E+00 
SP   1    1.000000
   4.38000000E-02    1.00000000E+00   1.00000000E+00 
D    1    1.000000
   6.26000000E-01    1.00000000E+00 

6    0
S    6    1.000000
   8.58850000E+03    1.89515000E-03 
   1.29723000E+03    1.43859000E-02 
   2.99296000E+02    7.07320000E-02 
   8.73771000E+01    2.40001000E-01 
   2.56789000E+01    5.94797000E-01 
   3.74004000E+00    2.80802000E-01 
SP   3    1.000000
   4.21175000E+01    1.13889000E-01   3.65114000E-02 
   9.62837000E+00    9.20811000E-01   2.37153000E-01 
   2.85332000E+00   -3.27447000E-03   8.19702000E-01 
SP   1    1.000000
   9.05661000E-01    1.00000000E+00   1.00000000E+00 
SP   1    1.000000
   2.55611000E-01    1.00000000E+00   1.00000000E+00 
SP   1    1.000000
   8.45000000E-02    1.00000000E+00   1.00000000E+00 
D    1    1.000000
   1.29200000E+00    1.00000000E+00 

7    0
S    6    1.000000
   4.56324000E+03    1.96665000E-03 
   6.82024000E+02    1.52306000E-02 
   1.54973000E+02    7.61269000E-02 
   4.44553000E+01    2.60801000E-01 
   1.30290000E+01    6.16462000E-01 
   1.82773000E+00    2.21006000E-01 
SP   3    1.000000
   2.09642000E+01    1.14660000E-01   4.02487000E-02 
   4.80331000E+00    9.19999000E-01   2.37594000E-01 
   1.45933000E+00   -3.03068000E-03   8.15854000E-01 
SP   1    1.000000
   4.83456000E-01    1.00000000E+00   1.00000000E+00 
SP   1    1.000000
   1.45585000E-01    1.00000000E+00   1.00000000E+00 
SP   1    1.000000
   4.38000000E-02    1.00000000E+00   1.00000000E+00 
D    1    1.000000
   6.26000000E-01    1.00000000E+00 

8    0
S    6    1.000000
   8.58850000E+03    1.89515000E-03 
   1.29723000E+03    1.43859000E-02 
   2.99296000E+02    7.07320000E-02 
   8.73771000E+01    2.40001000E-01 
   2.56789000E+01    5.94797000E-01 
   3.74004000E+00    2.80802000E-01 
SP   3    1.000000
   4.21175000E+01    1.13889000E-01   3.65114000E-02 
   9.62837000E+00    9.20811000E-01   2.37153000E-01 
   2.85332000E+00   -3.27447000E-03   8.19702000E-01 
SP   1    1.000000
   9.05661000E-01    1.00000000E+00   1.00000000E+00 
SP   1    1.000000
   2.55611000E-01    1.00000000E+00   1.00000000E+00 
SP   1    1.000000
   8.45000000E-02    1.00000000E+00   1.00000000E+00 
D    1    1.000000
   1.29200000E+00    1.00000000E+00 

9    0
S    6    1.000000
   6.29348000E+03    1.96979000E-03 
   9.49044000E+02    1.49613000E-02 
   2.18776000E+02    7.35006000E-02 
   6.36916000E+01    2.48937000E-01 
   1.88282000E+01    6.02460000E-01 
   2.72023000E+00    2.56202000E-01 
SP   3    1.000000
   3.06331000E+01    1.11906000E-01   3.83119000E-02 
   7.02614000E+00    9.21666000E-01   2.37403000E-01 
   2.11205000E+00   -2.56919000E-03   8.17592000E-01 
SP   1    1.000000
   6.84009000E-01    1.00000000E+00   1.00000000E+00 
SP   1    1.000000
   2.00878000E-01    1.00000000E+00   1.00000000E+00 
SP   1    1.000000
   6.39000000E-02    1.00000000E+00   1.00000000E+00 
D    1    1.000000
   9.13000000E-01    1.00000000E+00 

10    0
S    6    1.000000
   6.29348000E+03    1.96979000E-03 
   9.49044000E+02    1.49613000E-02 
   2.18776000E+02    7.35006000E-02 
   6.36916000E+01    2.48937000E-01 
   1.88282000E+01    6.02460000E-01 
   2.72023000E+00    2.56202000E-01 
SP   3    1.000000
   3.06331000E+01    1.11906000E-01   3.83119000E-02 
   7.02614000E+00    9.21666000E-01   2.37403000E-01 
   2.11205000E+00   -2.56919000E-03   8.17592000E-01 
SP   1    1.000000
   6.84009000E-01    1.00000000E+00   1.00000000E+00 
SP   1    1.000000
   2.00878000E-01    1.00000000E+00   1.00000000E+00 
SP   1    1.000000
   6.39000000E-02    1.00000000E+00   1.00000000E+00 
D    1    1.000000
   9.13000000E-01    1.00000000E+00 

11    0
S    6    1.000000
   4.56324000E+03    1.96665000E-03 
   6.82024000E+02    1.52306000E-02 
   1.54973000E+02    7.61269000E-02 
   4.44553000E+01    2.60801000E-01 
   1.30290000E+01    6.16462000E-01 
   1.82773000E+00    2.21006000E-01 
SP   3    1.000000
   2.09642000E+01    1.14660000E-01   4.02487000E-02 
   4.80331000E+00    9.19999000E-01   2.37594000E-01 
   1.45933000E+00   -3.03068000E-03   8.15854000E-01 
SP   1    1.000000
   4.83456000E-01    1.00000000E+00   1.00000000E+00 
SP   1    1.000000
   1.45585000E-01    1.00000000E+00   1.00000000E+00 
SP   1    1.000000
   4.38000000E-02    1.00000000E+00   1.00000000E+00 
D    1    1.000000
   6.26000000E-01    1.00000000E+00 

12    0
S    3    1.000000
   3.38650000E+01    2.54938000E-02 
   5.09479000E+00    1.90373000E-01 
   1.15879000E+00    8.52161000E-01 
S    1    1.000000
   3.25840000E-01    1.00000000E+00 
S    1    1.000000
   1.02741000E-01    1.00000000E+00 
S    1    1.000000
   3.60000000E-02    1.00000000E+00 
P    1    1.000000
   7.50000000E-01    1.00000000E+00 

[MO]
Sym=X
Ene= -0.027600
Spin=Alpha
Occup=1
     1    1.728058911544e-05
     2    3.058166873088e-05
     3   -5.700833045927e-06
     4    6.663255704307e-05
     5   -2.223382349326e-16
     6   -9.547690530640e-05
     7    2.103974306044e-05
     8    7.913892847785e-05
     9    1.735137549099e-15
    10   -5.032595406738e-04
    11    1.293122770572e-04
    12    2.756275569443e-04
    13   -1.176251484798e-15
    14   -2.515755255794e-03
    15    1.212225373791e-03
    16    1.810247823536e-03
    17   -8.041420310907e-15
    18    7.371253922484e-06
    19    7.479298031656e-17
    20    1.105265693845e-16
    21   -2.008757503011e-05
    22    1.033642653360e-05
    23    8.612323799864e-06
    24    9.253972253576e-05
    25    1.208504091368e-04
    26    1.354973019413e-03
    27    2.910739552421e-06
    28   -1.048454816677e-05
    29   -7.267767403999e-17
    30   -3.668460300017e-06
    31    4.620052906839e-05
    32    5.885402670420e-04
    33    3.394383382443e-03
    34   -3.753475963969e-06
    35   -1.227531163173e-05
    36    7.010146906730e-16
    37    7.452336810165e-06
    38    4.493924859297e-05
    39   -8.694591689350e-04
    40   -2.106828282706e-03
    41    4.549561547288e-06
    42   -2.137196898604e-05
    43    8.550191855328e-16
    44    1.179848435699e-05
    45   -6.385834865397e-05
    46   -7.605382579445e-05
    47    4.392891008110e-05
    48   -9.562653359415e-16
    49    2.469663782184e-04
    50   -3.737630954556e-04
    51    2.232062477923e-04
    52    4.055602499950e-15
    53    7.173519019404e-05
    54   -3.673712588923e-04
    55    2.790033249004e-04
    56   -4.895220423241e-15
    57    1.364391395411e-04
    58    9.988377813671e-04
    59    8.732007736177e-04
    60   -7.458301789657e-15
    61   -6.054763037878e-05
    62   -8.602491040708e-16
    63   -6.026187503546e-16
    64    8.066308823854e-05
    65   -1.728099833480e-04
    66    5.514955576559e-01
    67    4.716561332091e-01
    68    1.583164311704e-03
    69   -9.059637012594e-04
    70    2.587851523518e-16
    71    5.531609259049e-03
    72   -6.211692733184e-04
    73    3.771796651534e-04
    74   -2.095927304272e-16
    75   -1.273469005757e-03
    76    1.452896238727e-04
    77   -6.407472753235e-05
    78   -9.412431823578e-16
    79    1.395100373666e-03
    80    3.515797754748e-05
    81   -1.452888345270e-04
    82    2.308759929604e-15
    83   -7.961437785681e-05
    84   -2.958266253047e-16
    85    2.706080593114e-16
    86   -2.135947835078e-05
    87    5.025561342595e-05
    88    6.281713869974e-06
    89    1.258432847710e-05
    90   -1.546169919161e-05
    91    7.653375977678e-06
    92   -2.399327926412e-16
    93   -4.783867485374e-05
    94   -2.125883906030e-06
    95    7.374066808074e-06
    96    2.603372548612e-15
    97   -2.117672015740e-04
    98   -2.509816173988e-04
    99   -2.352940027130e-04
   100   -3.765186713623e-15
   101   -7.590002308706e-04
   102    8.188009749553e-04
   103   -1.655668372063e-03
   104   -1.761267865273e-14
   105   -5.205459925282e-06
   106   -1.771146286187e-17
   107    4.083992747107e-17
   108   -2.630247195331e-05
   109    1.877459566311e-05
   110   -4.388459981516e-05
   111   -5.233380796794e-05
   112   -4.766708532571e-05
   113    6.171072646398e-05
   114    1.482204613008e-15
   115    7.251601548004e-05
   116   -6.172078049032e-05
   117    8.248066190988e-05
   118   -1.170462720434e-15
   119    2.540185444318e-04
   120   -9.694767147733e-05
   121    2.159654072173e-05
   122   -1.782462605391e-15
   123    3.452880216226e-04
   124    1.861152578353e-05
   125   -7.097729620352e-05
   126    7.234710884327e-15
   127    2.473376906404e-07
   128    4.706707625091e-16
   129    1.105792145420e-15
   130    8.011353657734e-06
   131   -2.317403587502e-06
   132   -1.138375796244e-05
   133   -1.871939912658e-05
   134    7.541397176645e-06
   135    6.351170564770e-05
   136    5.348821757878e-16
   137    3.874776681949e-05
   138   -2.563607330846e-05
   139    1.046219432443e-04
   140    9.012196051209e-17
   141    4.020795840654e-04
   142    2.938573696489e-05
   143   -1.074812380334e-06
   144   -1.973294617261e-15
   145    3.092074546121e-04
   146    8.214194577736e-04
   147    1.598539752022e-03
   148    1.233437214826e-14
   149   -7.023273025329e-06
   150    2.288215890163e-16
   151   -7.270551860764e-16
   152    2.308371495775e-05
   153    3.291331902817e-06
   154    8.414316087263e-06
   155    1.489721086726e-05
   156    2.134453722135e-05
   157    2.089407633185e-05
   158   -7.005571208330e-16
   159   -6.337697424423e-05
   160    1.285171345911e-05
   161    6.841350097617e-05
   162    3.494439695820e-17
   163    8.752154868875e-05
   164    2.703465362164e-04
   165    1.262186813336e-04
   166   -9.677622465111e-16
   167    8.783844594169e-04
   168    2.444192355018e-04
   169   -2.907940160106e-04
   170    8.199985504208e-15
   171   -4.136610613062e-06
   172   -2.443125185053e-16
   173    2.619979137596e-16
   174   -9.421693729563e-06
   175   -8.701296226687e-06
   176    1.560745957967e-05
   177    2.592417250093e-05
   178   -4.681196482112e-05
   179    5.165461076155e-05
   180   -1.443686552792e-15
   181   -6.568207413218e-05
   182   -7.642735618360e-05
   183    7.497374096093e-05
   184    4.056363225197e-16
   185   -5.713890454390e-04
   186   -3.564466424188e-05
   187    4.719767676411e-05
   188   -1.023180725214e-15
   189   -5.451877107571e-03
   190   -2.226019000282e-03
   191    9.709571813663e-04
   192    1.489963335137e-14
   193    1.036221415120e-05
   194   -3.290028506794e-17
   195   -3.780333741934e-16
   196    1.339077786579e-05
   197   -1.827449387954e-05
   198   -8.131504508268e-07
   199   -3.840402832918e-05
   200    5.771159083431e-04
   201    4.537460548199e-03
   202    1.719268234634e-05
   203   -1.007443255090e-05
   204    8.063951821848e-16
Sym=X
Ene= 0.027600
Spin=Alpha
Occup=0
     1   -1.038538226967e-06
     2   -2.542022862435e-06
     3    4.067184553756e-06
     4   -8.187843202168e-08
     5    5.384446792367e-16
     6    1.430029572593e-05
     7   -7.803738900263e-06
     8    1.431725581799e-06
     9   -9.198366141166e-16
    10   -5.672194476471e-04
    11   -1.395680450443e-04
    12   -2.257148393268e-04
    13    5.644682922119e-15
    14    1.194547261417e-04
    15    2.959948096866e-04
    16   -6.092709030413e-04
    17   -2.188210955629e-14
    18    6.361284634882e-07
    19    8.797286127528e-16
    20    9.374460093394e-16
    21   -3.860100408662e-06
    22    3.701612224989e-06
    23    3.911551252437e-08
    24    2.781995633595e-06
    25   -4.326556168359e-05
    26    7.388818635506e-05
    27   -3.491253724996e-06
    28    4.340215558483e-07
    29   -6.476983582788e-16
    30   -3.250770928222e-06
    31    5.258871045215e-06
    32   -1.232386870628e-04
    33   -3.470538294227e-04
    34    5.788972099990e-06
    35    9.796252063448e-07
    36    9.249221408664e-16
    37    3.415040709833e-06
    38    7.282580544731e-05
    39    1.326878922429e-04
    40    7.031042992254e-05
    41   -9.186064297371e-06
    42   -6.131995680770e-06
    43    4.395052714470e-16
    44   -4.660747506991e-08
    45    2.495879728832e-06
    46    5.529549060616e-06
    47   -1.687973995893e-07
    48   -9.114815447691e-16
    49   -1.187244102832e-05
    50   -3.257050949863e-05
    51   -4.147891002300e-06
    52    2.292520538327e-15
    53   -2.983006280706e-04
    54   -1.434992405170e-04
    55    2.925448610806e-05
    56   -1.895083778154e-15
    57   -2.613608548168e-04
    58   -2.047442516366e-05
    59   -1.601422636128e-04
    60   -9.843834706575e-15
    61    4.257612752816e-06
    62   -3.165336667596e-16
    63    1.356121091344e-15
    64   -6.932690965418e-06
    65   -3.648049787744e-07
    66    3.057817072915e-05
    67    3.039053688739e-05
    68    1.628455503394e-06
    69    1.158018143959e-08
    70    2.703227013788e-16
    71   -5.706523354686e-06
    72   -2.161357985225e-06
    73    1.095865321633e-06
    74    1.864474100132e-16
    75    2.173023250798e-05
    76    1.643080793243e-05
    77    4.303077603144e-07
    78   -2.421413105803e-15
    79   -2.384312469540e-04
    80   -1.245973657892e-04
    81    4.840264311571e-05
    82    3.053143833878e-15
    83    3.206876775286e-07
    84   -3.428373093788e-16
    85    2.049425923606e-16
    86    3.600152495495e-07
    87   -2.407489309871e-07
    88    4.420832905474e-06
    89   -7.494659388284e-05
    90    6.230728579430e-05
    91    4.515851846813e-05
    92   -1.060077110055e-15
    93    3.060173336997e-04
    94    3.415641767910e-04
    95    1.954983867141e-04
    96    1.609958555750e-15
    97   -2.217549855258e-04
    98    6.435006940347e-04
    99    4.001516869277e-04
   100    2.128019416423e-16
   101   -2.517378552144e-03
   102   -6.818538458626e-04
   103    6.270391116838e-04
   104    1.461628797190e-15
   105   -5.052306457802e-05
   106    9.500897855784e-16
   107   -6.806438967604e-16
   108    8.890857297935e-05
   109    1.770378374539e-04
   110    5.514852270626e-01
   111    4.716864010939e-01
   112   -1.612807338518e-03
   113   -7.499527248760e-04
   114    1.619031825406e-15
   115    5.479375824278e-03
   116    6.817777220391e-04
   117    2.343851999450e-04
   118   -2.481548917721e-15
   119   -1.295283037645e-03
   120   -1.479649419925e-04
   121   -4.285692867807e-05
   122    3.570083052080e-15
   123    1.178923314566e-03
   124    4.613178624777e-05
   125   -3.411913440570e-05
   126   -6.226114505408e-15
   127   -1.142746134672e-04
   128    8.860599484468e-16
   129    9.614094962471e-16
   130   -8.276030031489e-06
   131   -6.665349510670e-05
   132   -8.299248110156e-07
   133    1.132947511067e-06
   134   -6.641576922782e-06
   135   -1.612776802503e-06
   136    6.211298073687e-16
   137   -3.546834535317e-05
   138    2.934720355080e-05
   139   -3.020677264790e-06
   140   -5.025529583688e-16
   141    3.929637481971e-04
   142   -3.415296651102e-05
   143   -3.083073774135e-04
   144    2.330995770666e-16
   145   -5.715414245319e-05
   146   -5.097590491348e-04
   147   -1.753651453730e-04
   148    2.447461465285e-15
   149   -7.357652269770e-06
   150    6.000176590622e-16
   151   -6.846038364097e-16
   152    2.008829488429e-05
   153   -1.375646190009e-05
   154   -1.191596902566e-07
   155    4.169804166254e-07
   156    2.019754450112e-07
   157    2.640128041057e-07
   158   -1.249563744780e-15
   159   -7.762104515784e-06
   160   -7.759781078742e-07
   161   -1.587300464334e-06
   162    2.845036958966e-15
   163    1.408610413376e-04
   164    5.622180261499e-05
   165    2.389816265297e-05
   166   -7.122124067743e-15
   167    1.998707513014e-04
   168   -6.780724769968e-05
   169    2.154005866642e-05
   170    1.843422124892e-14
   171    9.504512431138e-07
   172   -1.716578864325e-15
   173    1.473776609393e-16
   174    7.846730164423e-07
   175   -2.860176019925e-07
   176    2.086896098208e-06
   177    3.307901284267e-06
   178   -4.151868158946e-06
   179   -1.909073019933e-05
   180    6.011118848604e-16
   181   -2.837439516299e-05
   182    1.783959001130e-06
   183    6.431846347440e-05
   184   -5.918647143776e-16
   185    6.352208526416e-04
   186   -5.852232127403e-04
   187    9.999451819438e-05
   188   -4.302751175930e-15
   189    1.969124652257e-03
   190    8.173962018043e-05
   191    1.230659425668e-03
   192    1.415337950652e-14
   193   -6.518908562599e-06
   194    9.634172797975e-16
   195    9.765193702495e-16
   196   -2.630097654531e-05
   197    2.512373428458e-05
   198   -4.441316716727e-06
   199    1.253931102921e-04
   200    1.684342072562e-04
   201    3.644540352165e-04
   202   -1.843842470957e-05
   203    1.058410248143e-05
   204   -7.759615357698e-16
[5D]
