[Molden Format]
[Atoms] (Angs)
  C      1    6     -0.00714236     -1.70213747     -0.00000000
  H      2    1     -2.06882847     -1.44022412      0.00000000
  H      3    1     -0.12337987     -2.77567521      0.00000000
  H      4    1      0.04651892      1.98813947     -0.00000000
  C      5    6     -1.21953563      0.40211669      0.00000000
  O      6    8     -2.25921553      1.03043814      0.00000000
  C      7    6      1.28797806      0.34644937     -0.00000000
  O      8    8      2.31273661      1.00537216     -0.00000000
  N      9    7      0.03446295      0.97739857     -0.00000000
  N     10    7     -1.17287765     -0.98229824      0.00000000
  C     11    6      1.20107039     -1.10433419     -0.00000000
  H     12    1      2.11220096     -1.67699125     -0.00000000
[GTO]
1    0
S    6    1.000000
   4.56324000E+03    1.96665000E-03 
   6.82024000E+02    1.52306000E-02 
   1.54973000E+02    7.61269000E-02 
   4.44553000E+01    2.60801000E-01 
   1.30290000E+01    6.16462000E-01 
   1.82773000E+00    2.21006000E-01 
SP   3    1.000000
   2.09642000E+01    1.14660000E-01   4.02487000E-02 
   4.80331000E+00    9.19999000E-01   2.37594000E-01 
   1.45933000E+00   -3.03068000E-03   8.15854000E-01 
SP   1    1.000000
   4.83456000E-01    1.00000000E+00   1.00000000E+00 
SP   1    1.000000
   1.45585000E-01    1.00000000E+00   1.00000000E+00 
SP   1    1.000000
   4.38000000E-02    1.00000000E+00   1.00000000E+00 
D    1    1.000000
   6.26000000E-01    1.00000000E+00 

2    0
S    3    1.000000
   3.38650000E+01    2.54938000E-02 
   5.09479000E+00    1.90373000E-01 
   1.15879000E+00    8.52161000E-01 
S    1    1.000000
   3.25840000E-01    1.00000000E+00 
S    1    1.000000
   1.02741000E-01    1.00000000E+00 
S    1    1.000000
   3.60000000E-02    1.00000000E+00 
P    1    1.000000
   7.50000000E-01    1.00000000E+00 

3    0
S    3    1.000000
   3.38650000E+01    2.54938000E-02 
   5.09479000E+00    1.90373000E-01 
   1.15879000E+00    8.52161000E-01 
S    1    1.000000
   3.25840000E-01    1.00000000E+00 
S    1    1.000000
   1.02741000E-01    1.00000000E+00 
S    1    1.000000
   3.60000000E-02    1.00000000E+00 
P    1    1.000000
   7.50000000E-01    1.00000000E+00 

4    0
S    3    1.000000
   3.38650000E+01    2.54938000E-02 
   5.09479000E+00    1.90373000E-01 
   1.15879000E+00    8.52161000E-01 
S    1    1.000000
   3.25840000E-01    1.00000000E+00 
S    1    1.000000
   1.02741000E-01    1.00000000E+00 
S    1    1.000000
   3.60000000E-02    1.00000000E+00 
P    1    1.000000
   7.50000000E-01    1.00000000E+00 

5    0
S    6    1.000000
   4.56324000E+03    1.96665000E-03 
   6.82024000E+02    1.52306000E-02 
   1.54973000E+02    7.61269000E-02 
   4.44553000E+01    2.60801000E-01 
   1.30290000E+01    6.16462000E-01 
   1.82773000E+00    2.21006000E-01 
SP   3    1.000000
   2.09642000E+01    1.14660000E-01   4.02487000E-02 
   4.80331000E+00    9.19999000E-01   2.37594000E-01 
   1.45933000E+00   -3.03068000E-03   8.15854000E-01 
SP   1    1.000000
   4.83456000E-01    1.00000000E+00   1.00000000E+00 
SP   1    1.000000
   1.45585000E-01    1.00000000E+00   1.00000000E+00 
SP   1    1.000000
   4.38000000E-02    1.00000000E+00   1.00000000E+00 
D    1    1.000000
   6.26000000E-01    1.00000000E+00 

6    0
S    6    1.000000
   8.58850000E+03    1.89515000E-03 
   1.29723000E+03    1.43859000E-02 
   2.99296000E+02    7.07320000E-02 
   8.73771000E+01    2.40001000E-01 
   2.56789000E+01    5.94797000E-01 
   3.74004000E+00    2.80802000E-01 
SP   3    1.000000
   4.21175000E+01    1.13889000E-01   3.65114000E-02 
   9.62837000E+00    9.20811000E-01   2.37153000E-01 
   2.85332000E+00   -3.27447000E-03   8.19702000E-01 
SP   1    1.000000
   9.05661000E-01    1.00000000E+00   1.00000000E+00 
SP   1    1.000000
   2.55611000E-01    1.00000000E+00   1.00000000E+00 
SP   1    1.000000
   8.45000000E-02    1.00000000E+00   1.00000000E+00 
D    1    1.000000
   1.29200000E+00    1.00000000E+00 

7    0
S    6    1.000000
   4.56324000E+03    1.96665000E-03 
   6.82024000E+02    1.52306000E-02 
   1.54973000E+02    7.61269000E-02 
   4.44553000E+01    2.60801000E-01 
   1.30290000E+01    6.16462000E-01 
   1.82773000E+00    2.21006000E-01 
SP   3    1.000000
   2.09642000E+01    1.14660000E-01   4.02487000E-02 
   4.80331000E+00    9.19999000E-01   2.37594000E-01 
   1.45933000E+00   -3.03068000E-03   8.15854000E-01 
SP   1    1.000000
   4.83456000E-01    1.00000000E+00   1.00000000E+00 
SP   1    1.000000
   1.45585000E-01    1.00000000E+00   1.00000000E+00 
SP   1    1.000000
   4.38000000E-02    1.00000000E+00   1.00000000E+00 
D    1    1.000000
   6.26000000E-01    1.00000000E+00 

8    0
S    6    1.000000
   8.58850000E+03    1.89515000E-03 
   1.29723000E+03    1.43859000E-02 
   2.99296000E+02    7.07320000E-02 
   8.73771000E+01    2.40001000E-01 
   2.56789000E+01    5.94797000E-01 
   3.74004000E+00    2.80802000E-01 
SP   3    1.000000
   4.21175000E+01    1.13889000E-01   3.65114000E-02 
   9.62837000E+00    9.20811000E-01   2.37153000E-01 
   2.85332000E+00   -3.27447000E-03   8.19702000E-01 
SP   1    1.000000
   9.05661000E-01    1.00000000E+00   1.00000000E+00 
SP   1    1.000000
   2.55611000E-01    1.00000000E+00   1.00000000E+00 
SP   1    1.000000
   8.45000000E-02    1.00000000E+00   1.00000000E+00 
D    1    1.000000
   1.29200000E+00    1.00000000E+00 

9    0
S    6    1.000000
   6.29348000E+03    1.96979000E-03 
   9.49044000E+02    1.49613000E-02 
   2.18776000E+02    7.35006000E-02 
   6.36916000E+01    2.48937000E-01 
   1.88282000E+01    6.02460000E-01 
   2.72023000E+00    2.56202000E-01 
SP   3    1.000000
   3.06331000E+01    1.11906000E-01   3.83119000E-02 
   7.02614000E+00    9.21666000E-01   2.37403000E-01 
   2.11205000E+00   -2.56919000E-03   8.17592000E-01 
SP   1    1.000000
   6.84009000E-01    1.00000000E+00   1.00000000E+00 
SP   1    1.000000
   2.00878000E-01    1.00000000E+00   1.00000000E+00 
SP   1    1.000000
   6.39000000E-02    1.00000000E+00   1.00000000E+00 
D    1    1.000000
   9.13000000E-01    1.00000000E+00 

10    0
S    6    1.000000
   6.29348000E+03    1.96979000E-03 
   9.49044000E+02    1.49613000E-02 
   2.18776000E+02    7.35006000E-02 
   6.36916000E+01    2.48937000E-01 
   1.88282000E+01    6.02460000E-01 
   2.72023000E+00    2.56202000E-01 
SP   3    1.000000
   3.06331000E+01    1.11906000E-01   3.83119000E-02 
   7.02614000E+00    9.21666000E-01   2.37403000E-01 
   2.11205000E+00   -2.56919000E-03   8.17592000E-01 
SP   1    1.000000
   6.84009000E-01    1.00000000E+00   1.00000000E+00 
SP   1    1.000000
   2.00878000E-01    1.00000000E+00   1.00000000E+00 
SP   1    1.000000
   6.39000000E-02    1.00000000E+00   1.00000000E+00 
D    1    1.000000
   9.13000000E-01    1.00000000E+00 

11    0
S    6    1.000000
   4.56324000E+03    1.96665000E-03 
   6.82024000E+02    1.52306000E-02 
   1.54973000E+02    7.61269000E-02 
   4.44553000E+01    2.60801000E-01 
   1.30290000E+01    6.16462000E-01 
   1.82773000E+00    2.21006000E-01 
SP   3    1.000000
   2.09642000E+01    1.14660000E-01   4.02487000E-02 
   4.80331000E+00    9.19999000E-01   2.37594000E-01 
   1.45933000E+00   -3.03068000E-03   8.15854000E-01 
SP   1    1.000000
   4.83456000E-01    1.00000000E+00   1.00000000E+00 
SP   1    1.000000
   1.45585000E-01    1.00000000E+00   1.00000000E+00 
SP   1    1.000000
   4.38000000E-02    1.00000000E+00   1.00000000E+00 
D    1    1.000000
   6.26000000E-01    1.00000000E+00 

12    0
S    3    1.000000
   3.38650000E+01    2.54938000E-02 
   5.09479000E+00    1.90373000E-01 
   1.15879000E+00    8.52161000E-01 
S    1    1.000000
   3.25840000E-01    1.00000000E+00 
S    1    1.000000
   1.02741000E-01    1.00000000E+00 
S    1    1.000000
   3.60000000E-02    1.00000000E+00 
P    1    1.000000
   7.50000000E-01    1.00000000E+00 

[MO]
Sym=X
Ene= -0.483761
Spin=Alpha
Occup=1
     1    1.388637738649e-14
     2    2.347937747249e-14
     3   -1.460296761916e-14
     4   -8.167150531404e-15
     5   -2.846870935228e-02
     6   -1.132956851242e-13
     7    1.084714768543e-13
     8   -5.681498161016e-14
     9   -4.899127536225e-02
    10   -5.154951234134e-13
    11   -1.341210043131e-13
    12   -6.327957975605e-13
    13   -4.390855746088e-02
    14   -2.824432427927e-11
    15   -1.022644143717e-11
    16   -3.382648247282e-12
    17   -3.340643790128e-02
    18    1.189140382815e-14
    19    2.646523535845e-02
    20   -1.786656868551e-03
    21    1.521245182722e-14
    22   -5.111216001332e-15
    23   -1.322030534179e-14
    24    3.011936760089e-13
    25    2.685495765286e-13
    26    7.189082117317e-14
    27    1.972918338230e-14
    28    5.769873024689e-15
    29   -1.216664576454e-02
    30   -2.508427295794e-14
    31   -1.178687726673e-13
    32   -1.007720847284e-12
    33   -3.967625866806e-12
    34    7.912359356231e-15
    35   -1.183955449888e-14
    36   -2.975763399494e-03
    37   -1.046408821510e-14
    38   -1.143093058323e-13
    39   -1.549780847309e-12
    40    1.290903920502e-12
    41   -8.947900001313e-15
    42    1.987981039612e-15
    43   -1.235080932576e-02
    44   -2.676123478221e-17
    45   -2.215562527663e-16
    46   -1.000986096024e-14
    47    2.852802949173e-15
    48    2.472292485338e-01
    49    5.436357546433e-14
    50    1.458907057687e-14
    51   -1.390112096016e-14
    52    4.274022341126e-01
    53   -2.021985746308e-13
    54   -1.347856187004e-12
    55   -4.565917304835e-13
    56    6.447476238704e-01
    57   -2.252546964669e-12
    58   -6.689715969755e-13
    59    8.994966250601e-13
    60    2.032949072370e-01
    61   -1.098068268486e-14
    62   -5.283712160924e-03
    63   -1.062476758753e-03
    64   -1.387258220118e-14
    65   -1.854381322720e-15
    66   -2.511784757403e-15
    67   -2.384939029003e-15
    68    2.960929834738e-15
    69   -1.041715149815e-14
    70   -2.003310964124e-01
    71    1.880642936199e-14
    72    1.140229870135e-14
    73   -2.357063031822e-14
    74   -2.711829856742e-01
    75   -1.192972486578e-13
    76    3.647748190801e-15
    77    1.348462009621e-13
    78   -2.948012160633e-01
    79   -2.000871800885e-12
    80   -5.461204501161e-13
    81    5.127734532090e-13
    82   -1.149130275718e-01
    83   -3.542839907579e-15
    84    1.136547123298e-02
    85   -6.881546290094e-03
    86    1.323035083352e-15
    87   -3.419819891210e-15
    88   -6.003659459324e-15
    89   -1.344642775424e-14
    90   -6.497175010913e-15
    91   -9.784956108535e-15
    92   -2.293774470953e-02
    93    5.178026919673e-14
    94   -4.686298378802e-14
    95   -2.479869931783e-15
    96   -4.125637737735e-02
    97   -1.542109432051e-13
    98   -1.079349762990e-13
    99    1.511635577605e-14
   100   -3.169779998810e-02
   101   -2.798725436377e-12
   102    9.124874023711e-12
   103   -2.642626509568e-12
   104   -2.676510440679e-02
   105   -9.949878077095e-15
   106    1.998576134601e-02
   107   -1.573048567807e-02
   108   -8.500740924692e-15
   109    1.499367432458e-14
   110   -1.494612691215e-15
   111   -1.870019198915e-15
   112   -6.761192187521e-15
   113    1.953016870109e-14
   114    2.477639588756e-02
   115    1.724557772808e-14
   116   -1.338304615268e-14
   117    3.507185679527e-14
   118    3.789494376363e-02
   119    2.243850345084e-14
   120    7.139811731927e-14
   121   -5.975123766577e-14
   122    4.681561604857e-02
   123   -6.116819963974e-13
   124   -7.140821269849e-13
   125   -1.029637134180e-14
   126    2.579471942957e-02
   127    1.708225713860e-15
   128    7.622433697449e-04
   129   -1.067238177485e-03
   130    2.626539728232e-15
   131   -1.804830978449e-15
   132   -4.854193417635e-15
   133   -7.068542292228e-15
   134   -2.171097470211e-14
   135   -7.834091171691e-15
   136   -9.441486268041e-02
   137   -2.370934763828e-14
   138   -2.123972531143e-14
   139   -9.456210522410e-14
   140   -1.446317224036e-01
   141    6.742449450574e-13
   142   -5.448555751054e-13
   143    4.071756337291e-13
   144   -2.741182668507e-01
   145    8.643717759750e-12
   146    4.208746141357e-14
   147    9.786202267228e-13
   148   -1.743637660079e-01
   149   -6.093212172219e-15
   150   -2.258319290782e-02
   151   -7.552788296206e-03
   152   -2.833510623708e-15
   153   -3.251670057114e-15
   154   -1.649887363142e-14
   155   -2.771757739822e-14
   156   -9.206169642471e-15
   157   -7.841305518887e-15
   158   -8.173957966897e-02
   159    1.114421644765e-13
   160   -8.330575765338e-14
   161   -1.063839765995e-14
   162   -1.247233435753e-01
   163    5.613827215196e-14
   164    8.854620155581e-13
   165   -1.223512530086e-13
   166   -2.413743384732e-01
   167   -1.410870116275e-12
   168   -1.238506296391e-13
   169    2.527724985728e-12
   170   -1.741214530373e-01
   171    6.532846975724e-15
   172   -4.207812167507e-03
   173    2.555497954264e-02
   174   -1.140168038167e-14
   175   -1.242064427707e-14
   176    1.061147264766e-14
   177    1.379702023271e-14
   178   -9.749631580082e-15
   179    7.951448979035e-15
   180    6.192579100451e-02
   181    5.872815812432e-14
   182   -4.809793010273e-14
   183   -4.126976277518e-14
   184    9.860474566476e-02
   185   -6.735798356188e-13
   186   -2.235791998331e-13
   187    4.895910316721e-13
   188    1.727131005484e-01
   189    3.484717448660e-11
   190   -1.425411978742e-11
   191   -8.606669734458e-12
   192    1.034291905152e-01
   193    2.259239377867e-14
   194    2.491389053834e-03
   195   -5.660424394285e-04
   196   -2.960590217310e-14
   197    1.141039864359e-15
   198   -3.395708218093e-14
   199    1.928753700395e-13
   200   -6.966000951909e-13
   201   -3.349890245692e-13
   202   -2.407893170508e-14
   203   -8.246562903378e-16
   204    6.408977170520e-03
Sym=X
Ene= 0.483761
Spin=Alpha
Occup=0
     1   -1.076381917764e-15
     2    4.178855443694e-16
     3   -4.098042117352e-15
     4   -1.616306487547e-14
     5   -7.404517048219e-02
     6    3.625663181510e-14
     7   -4.899257004961e-14
     8   -4.565742334287e-14
     9   -7.743580895978e-02
    10   -3.876900124077e-13
    11   -7.667969041265e-14
    12   -1.282943916178e-13
    13   -3.733297822003e-01
    14   -7.521051523458e-12
    15   -1.599519599317e-12
    16    1.516787626115e-12
    17    1.689834208847e+00
    18    1.570481771749e-14
    19   -2.021379141962e-03
    20   -1.655669722626e-02
    21    2.529369724002e-15
    22   -1.904388505057e-14
    23    6.029548534167e-15
    24   -1.221094296618e-13
    25   -3.599016089476e-14
    26    1.688923478283e-12
    27   -8.042560034727e-15
    28    3.383947707872e-15
    29    5.499038475582e-03
    30   -2.532948648160e-15
    31   -8.481824728603e-14
    32    4.152655622900e-13
    33    1.088892598613e-12
    34    1.355265839765e-14
    35    4.800100178416e-15
    36    7.702930707763e-03
    37    1.794411748216e-14
    38    7.609887189629e-14
    39    8.899200938810e-13
    40   -2.165345060671e-12
    41   -9.111657757094e-15
    42    2.504050301990e-15
    43   -7.286418746713e-03
    44   -1.258270049531e-15
    45   -1.826163750065e-15
    46    1.378787184045e-14
    47   -6.348878111595e-15
    48    2.437526243839e-02
    49   -1.680490339299e-14
    50   -4.051684067021e-14
    51   -3.985778245123e-15
    52    2.768749717616e-02
    53   -5.205041669739e-14
    54    4.618116562009e-13
    55    1.677220554705e-13
    56    1.135302175265e-01
    57   -1.616133193263e-12
    58    1.546573202799e-12
    59    3.990616238209e-12
    60   -9.317751031385e-01
    61   -8.401761318784e-16
    62   -7.418426860810e-03
    63   -1.433357097410e-03
    64    1.157713372945e-14
    65   -1.136310186967e-15
    66    3.109156895657e-15
    67    5.146520790696e-15
    68    1.316796915164e-15
    69   -5.058499004650e-15
    70    2.959156526644e-02
    71   -1.375107108614e-14
    72   -1.684022742400e-14
    73   -6.750726827205e-15
    74    4.134645773321e-02
    75   -4.224550848982e-14
    76    2.395977722326e-14
    77    4.855349726806e-15
    78    3.916857707060e-02
    79    5.462598140810e-13
    80   -1.785440536802e-14
    81   -6.680168861342e-13
    82   -7.202749849205e-02
    83    6.445776499144e-15
    84    3.695625240546e-03
    85   -4.577508780422e-03
    86   -1.827634045126e-15
    87    3.656375543322e-15
    88   -5.131910682936e-15
    89   -8.389363839992e-15
    90    6.828692127328e-15
    91    2.669874481171e-15
    92    2.642547939031e-02
    93    5.958764276355e-14
    94    1.343679156348e-15
    95    2.598687187957e-14
    96    4.108801384442e-02
    97   -1.514171470952e-13
    98    2.582634194716e-13
    99    5.355598319747e-13
   100    1.105763783119e-01
   101   -1.884816056065e-12
   102    7.977824067803e-13
   103    1.691277054971e-12
   104    3.830193059126e-01
   105    1.118751737542e-14
   106   -5.565187000503e-03
   107   -3.461825875259e-04
   108    1.789936636525e-14
   109   -2.798606042783e-15
   110    2.166017965441e-16
   111   -3.533823392484e-15
   112    1.258768008986e-14
   113   -1.867690019633e-14
   114   -2.002954617327e-02
   115    2.142341813273e-14
   116   -2.436374476552e-16
   117   -8.940019392192e-15
   118   -2.993827491539e-02
   119   -1.466089859208e-13
   120    9.300189687700e-14
   121   -4.301664208927e-14
   122   -4.262646359559e-02
   123   -3.040247678659e-13
   124    1.633107502667e-13
   125    9.036033588606e-14
   126   -8.437388863341e-02
   127   -3.652632461675e-15
   128   -4.614113208045e-04
   129   -1.067164188831e-03
   130   -2.568152210689e-15
   131    3.866605412527e-15
   132    2.422784152219e-15
   133    2.976235810074e-15
   134    7.819194021201e-15
   135   -1.174450077324e-14
   136    5.402251261263e-03
   137    1.003598286787e-14
   138    8.377028667191e-16
   139    1.212343295169e-14
   140    6.736833249015e-03
   141   -2.195454619441e-13
   142    1.412790320879e-13
   143   -2.526185073235e-13
   144    1.881643616068e-02
   145   -3.269776950179e-12
   146    1.650058069053e-13
   147   -3.724115743200e-13
   148   -2.276373223890e-01
   149   -6.846193312072e-16
   150    3.281827022955e-03
   151   -6.248715233286e-03
   152   -1.153370674846e-15
   153    1.165997301359e-15
   154    2.069278972230e-15
   155    2.103152141757e-15
   156    8.200276550400e-15
   157   -9.419429018226e-15
   158   -1.726049415331e-02
   159   -8.877766807597e-15
   160    1.859270876619e-14
   161   -1.298603119320e-14
   162   -2.941450025722e-02
   163    1.081393780295e-14
   164   -1.232772849536e-13
   165   -5.833464279699e-14
   166   -2.578010578847e-02
   167    2.197741612641e-12
   168   -3.800877573993e-13
   169    4.251627219966e-13
   170    1.675316514993e-01
   171   -1.742920159480e-15
   172   -8.064306914508e-03
   173    6.931236285977e-04
   174    3.039350047965e-15
   175   -3.851263652607e-15
   176   -7.489042696456e-15
   177   -3.454796581345e-15
   178    3.320516597545e-14
   179   -1.500673245659e-14
   180   -3.764475573495e-02
   181   -3.936825417903e-14
   182    4.336919586123e-17
   183   -7.497447294450e-15
   184   -4.075749477659e-02
   185    1.019913445482e-12
   186    8.744197207333e-14
   187    2.195082585028e-13
   188   -1.354729424108e-01
   189    9.897290643658e-12
   190   -3.150458751885e-12
   191   -1.442442836877e-12
   192   -4.752286551016e-01
   193   -2.625787907956e-14
   194    1.077246572626e-02
   195    1.975941021388e-03
   196   -9.888034247643e-15
   197    9.161201873971e-15
   198   -9.588443269894e-15
   199   -3.617313318024e-14
   200   -6.310670175380e-13
   201    6.822385509234e-13
   202   -4.087491201115e-16
   203   -2.099794563099e-15
   204    2.245088620341e-03
[5D]
