[Molden Format]
[Atoms] (Angs)
  C      1    6     -0.00714236     -1.70213747     -0.00000000
  H      2    1     -2.06882847     -1.44022412      0.00000000
  H      3    1     -0.12337987     -2.77567521      0.00000000
  H      4    1      0.04651892      1.98813947     -0.00000000
  C      5    6     -1.21953563      0.40211669      0.00000000
  O      6    8     -2.25921553      1.03043814      0.00000000
  C      7    6      1.28797806      0.34644937     -0.00000000
  O      8    8      2.31273661      1.00537216     -0.00000000
  N      9    7      0.03446295      0.97739857     -0.00000000
  N     10    7     -1.17287765     -0.98229824      0.00000000
  C     11    6      1.20107039     -1.10433419     -0.00000000
  H     12    1      2.11220096     -1.67699125     -0.00000000
[GTO]
1    0
S    6    1.000000
   4.56324000E+03    1.96665000E-03 
   6.82024000E+02    1.52306000E-02 
   1.54973000E+02    7.61269000E-02 
   4.44553000E+01    2.60801000E-01 
   1.30290000E+01    6.16462000E-01 
   1.82773000E+00    2.21006000E-01 
SP   3    1.000000
   2.09642000E+01    1.14660000E-01   4.02487000E-02 
   4.80331000E+00    9.19999000E-01   2.37594000E-01 
   1.45933000E+00   -3.03068000E-03   8.15854000E-01 
SP   1    1.000000
   4.83456000E-01    1.00000000E+00   1.00000000E+00 
SP   1    1.000000
   1.45585000E-01    1.00000000E+00   1.00000000E+00 
SP   1    1.000000
   4.38000000E-02    1.00000000E+00   1.00000000E+00 
D    1    1.000000
   6.26000000E-01    1.00000000E+00 

2    0
S    3    1.000000
   3.38650000E+01    2.54938000E-02 
   5.09479000E+00    1.90373000E-01 
   1.15879000E+00    8.52161000E-01 
S    1    1.000000
   3.25840000E-01    1.00000000E+00 
S    1    1.000000
   1.02741000E-01    1.00000000E+00 
S    1    1.000000
   3.60000000E-02    1.00000000E+00 
P    1    1.000000
   7.50000000E-01    1.00000000E+00 

3    0
S    3    1.000000
   3.38650000E+01    2.54938000E-02 
   5.09479000E+00    1.90373000E-01 
   1.15879000E+00    8.52161000E-01 
S    1    1.000000
   3.25840000E-01    1.00000000E+00 
S    1    1.000000
   1.02741000E-01    1.00000000E+00 
S    1    1.000000
   3.60000000E-02    1.00000000E+00 
P    1    1.000000
   7.50000000E-01    1.00000000E+00 

4    0
S    3    1.000000
   3.38650000E+01    2.54938000E-02 
   5.09479000E+00    1.90373000E-01 
   1.15879000E+00    8.52161000E-01 
S    1    1.000000
   3.25840000E-01    1.00000000E+00 
S    1    1.000000
   1.02741000E-01    1.00000000E+00 
S    1    1.000000
   3.60000000E-02    1.00000000E+00 
P    1    1.000000
   7.50000000E-01    1.00000000E+00 

5    0
S    6    1.000000
   4.56324000E+03    1.96665000E-03 
   6.82024000E+02    1.52306000E-02 
   1.54973000E+02    7.61269000E-02 
   4.44553000E+01    2.60801000E-01 
   1.30290000E+01    6.16462000E-01 
   1.82773000E+00    2.21006000E-01 
SP   3    1.000000
   2.09642000E+01    1.14660000E-01   4.02487000E-02 
   4.80331000E+00    9.19999000E-01   2.37594000E-01 
   1.45933000E+00   -3.03068000E-03   8.15854000E-01 
SP   1    1.000000
   4.83456000E-01    1.00000000E+00   1.00000000E+00 
SP   1    1.000000
   1.45585000E-01    1.00000000E+00   1.00000000E+00 
SP   1    1.000000
   4.38000000E-02    1.00000000E+00   1.00000000E+00 
D    1    1.000000
   6.26000000E-01    1.00000000E+00 

6    0
S    6    1.000000
   8.58850000E+03    1.89515000E-03 
   1.29723000E+03    1.43859000E-02 
   2.99296000E+02    7.07320000E-02 
   8.73771000E+01    2.40001000E-01 
   2.56789000E+01    5.94797000E-01 
   3.74004000E+00    2.80802000E-01 
SP   3    1.000000
   4.21175000E+01    1.13889000E-01   3.65114000E-02 
   9.62837000E+00    9.20811000E-01   2.37153000E-01 
   2.85332000E+00   -3.27447000E-03   8.19702000E-01 
SP   1    1.000000
   9.05661000E-01    1.00000000E+00   1.00000000E+00 
SP   1    1.000000
   2.55611000E-01    1.00000000E+00   1.00000000E+00 
SP   1    1.000000
   8.45000000E-02    1.00000000E+00   1.00000000E+00 
D    1    1.000000
   1.29200000E+00    1.00000000E+00 

7    0
S    6    1.000000
   4.56324000E+03    1.96665000E-03 
   6.82024000E+02    1.52306000E-02 
   1.54973000E+02    7.61269000E-02 
   4.44553000E+01    2.60801000E-01 
   1.30290000E+01    6.16462000E-01 
   1.82773000E+00    2.21006000E-01 
SP   3    1.000000
   2.09642000E+01    1.14660000E-01   4.02487000E-02 
   4.80331000E+00    9.19999000E-01   2.37594000E-01 
   1.45933000E+00   -3.03068000E-03   8.15854000E-01 
SP   1    1.000000
   4.83456000E-01    1.00000000E+00   1.00000000E+00 
SP   1    1.000000
   1.45585000E-01    1.00000000E+00   1.00000000E+00 
SP   1    1.000000
   4.38000000E-02    1.00000000E+00   1.00000000E+00 
D    1    1.000000
   6.26000000E-01    1.00000000E+00 

8    0
S    6    1.000000
   8.58850000E+03    1.89515000E-03 
   1.29723000E+03    1.43859000E-02 
   2.99296000E+02    7.07320000E-02 
   8.73771000E+01    2.40001000E-01 
   2.56789000E+01    5.94797000E-01 
   3.74004000E+00    2.80802000E-01 
SP   3    1.000000
   4.21175000E+01    1.13889000E-01   3.65114000E-02 
   9.62837000E+00    9.20811000E-01   2.37153000E-01 
   2.85332000E+00   -3.27447000E-03   8.19702000E-01 
SP   1    1.000000
   9.05661000E-01    1.00000000E+00   1.00000000E+00 
SP   1    1.000000
   2.55611000E-01    1.00000000E+00   1.00000000E+00 
SP   1    1.000000
   8.45000000E-02    1.00000000E+00   1.00000000E+00 
D    1    1.000000
   1.29200000E+00    1.00000000E+00 

9    0
S    6    1.000000
   6.29348000E+03    1.96979000E-03 
   9.49044000E+02    1.49613000E-02 
   2.18776000E+02    7.35006000E-02 
   6.36916000E+01    2.48937000E-01 
   1.88282000E+01    6.02460000E-01 
   2.72023000E+00    2.56202000E-01 
SP   3    1.000000
   3.06331000E+01    1.11906000E-01   3.83119000E-02 
   7.02614000E+00    9.21666000E-01   2.37403000E-01 
   2.11205000E+00   -2.56919000E-03   8.17592000E-01 
SP   1    1.000000
   6.84009000E-01    1.00000000E+00   1.00000000E+00 
SP   1    1.000000
   2.00878000E-01    1.00000000E+00   1.00000000E+00 
SP   1    1.000000
   6.39000000E-02    1.00000000E+00   1.00000000E+00 
D    1    1.000000
   9.13000000E-01    1.00000000E+00 

10    0
S    6    1.000000
   6.29348000E+03    1.96979000E-03 
   9.49044000E+02    1.49613000E-02 
   2.18776000E+02    7.35006000E-02 
   6.36916000E+01    2.48937000E-01 
   1.88282000E+01    6.02460000E-01 
   2.72023000E+00    2.56202000E-01 
SP   3    1.000000
   3.06331000E+01    1.11906000E-01   3.83119000E-02 
   7.02614000E+00    9.21666000E-01   2.37403000E-01 
   2.11205000E+00   -2.56919000E-03   8.17592000E-01 
SP   1    1.000000
   6.84009000E-01    1.00000000E+00   1.00000000E+00 
SP   1    1.000000
   2.00878000E-01    1.00000000E+00   1.00000000E+00 
SP   1    1.000000
   6.39000000E-02    1.00000000E+00   1.00000000E+00 
D    1    1.000000
   9.13000000E-01    1.00000000E+00 

11    0
S    6    1.000000
   4.56324000E+03    1.96665000E-03 
   6.82024000E+02    1.52306000E-02 
   1.54973000E+02    7.61269000E-02 
   4.44553000E+01    2.60801000E-01 
   1.30290000E+01    6.16462000E-01 
   1.82773000E+00    2.21006000E-01 
SP   3    1.000000
   2.09642000E+01    1.14660000E-01   4.02487000E-02 
   4.80331000E+00    9.19999000E-01   2.37594000E-01 
   1.45933000E+00   -3.03068000E-03   8.15854000E-01 
SP   1    1.000000
   4.83456000E-01    1.00000000E+00   1.00000000E+00 
SP   1    1.000000
   1.45585000E-01    1.00000000E+00   1.00000000E+00 
SP   1    1.000000
   4.38000000E-02    1.00000000E+00   1.00000000E+00 
D    1    1.000000
   6.26000000E-01    1.00000000E+00 

12    0
S    3    1.000000
   3.38650000E+01    2.54938000E-02 
   5.09479000E+00    1.90373000E-01 
   1.15879000E+00    8.52161000E-01 
S    1    1.000000
   3.25840000E-01    1.00000000E+00 
S    1    1.000000
   1.02741000E-01    1.00000000E+00 
S    1    1.000000
   3.60000000E-02    1.00000000E+00 
P    1    1.000000
   7.50000000E-01    1.00000000E+00 

[MO]
Sym=X
Ene= -0.003922
Spin=Alpha
Occup=1
     1    4.879928935753e-05
     2    8.654937281045e-05
     3   -1.534348143947e-05
     4    1.662975649751e-04
     5   -5.223929555778e-16
     6   -3.056947196202e-04
     7    1.102835859453e-05
     8    2.633141419209e-04
     9    9.730097160482e-16
    10   -2.014444994614e-04
    11    7.230591278975e-05
    12    8.657601460920e-04
    13   -5.634765722917e-15
    14   -1.548687047305e-03
    15   -7.434373194205e-04
    16    4.276862023143e-03
    17    2.372364512297e-14
    18    2.269318009163e-05
    19   -8.832596296890e-16
    20   -9.525527678738e-16
    21   -5.842038471090e-05
    22    5.570997503500e-06
    23    5.016901906453e-05
    24    2.342548536533e-04
    25    1.315875770677e-03
    26    2.531809733894e-03
    27   -4.263008042715e-05
    28   -3.527627221037e-05
    29    6.449348520579e-16
    30   -1.887531645323e-06
    31    5.058201789979e-05
    32    1.154444659520e-03
    33    5.492012680953e-03
    34   -2.325160595080e-05
    35   -4.174448363268e-05
    36   -9.102063349273e-16
    37    2.023643986016e-05
    38   -3.234244544916e-05
    39    5.355046606225e-05
    40   -4.879257208199e-05
    41    1.140544754575e-05
    42    1.965944950714e-05
    43   -4.381564655683e-16
    44    2.806254006266e-06
    45    4.233439842456e-06
    46    1.496583602887e-06
    47    1.678804409915e-06
    48    9.220432232053e-16
    49   -8.021314687447e-05
    50    3.395918729039e-05
    51    2.203570105885e-05
    52   -2.277343916518e-15
    53    7.106841843525e-04
    54    3.596141315828e-04
    55   -1.054457346369e-04
    56    1.890447016807e-15
    57    2.822024225468e-04
    58    3.966294136870e-04
    59    8.422569809221e-04
    60    8.553269663157e-15
    61    2.197457214103e-05
    62    3.185121642453e-16
    63   -1.348158821213e-15
    64    8.738070479928e-06
    65   -4.426636723690e-05
    66    6.170767761624e-05
    67    6.525895708406e-05
    68    3.411148089297e-05
    69    1.166344423387e-05
    70   -2.218338015511e-16
    71   -7.909376054892e-05
    72    4.798494770545e-05
    73    1.771183927211e-05
    74   -1.945218193519e-16
    75   -1.753195914153e-04
    76    1.459444993986e-05
    77    4.135538107383e-05
    78    2.396203962233e-15
    79    4.064923800422e-04
    80    2.853810480533e-04
    81   -2.498259448897e-04
    82   -2.535477549533e-15
    83    4.550120265005e-06
    84    3.306640882423e-16
    85   -2.172595060368e-16
    86   -1.167899898568e-06
    87    6.114137657567e-06
    88    1.091827445841e-05
    89    1.048612080524e-04
    90   -5.739613758380e-05
    91    2.696298256266e-06
    92    1.084470438550e-15
    93   -4.284928932404e-04
    94   -3.336637018679e-04
    95   -1.390834495527e-04
    96   -1.599689869364e-15
    97    1.215573718074e-04
    98   -8.090874793881e-04
    99   -5.055534616683e-04
   100    4.976442941546e-18
   101    3.765962009058e-03
   102    1.160749364340e-03
   103   -6.520048975801e-04
   104    3.067194827345e-16
   105    6.316777733823e-05
   106   -9.577122720293e-16
   107    6.762143944610e-16
   108   -8.095133400657e-05
   109   -1.682982225111e-04
   110   -5.514774863979e-01
   111   -4.716708960146e-01
   112    1.526449850912e-03
   113    8.889603524078e-04
   114   -1.694377607982e-15
   115   -5.539247888968e-03
   116   -6.229743408749e-04
   117   -4.197580177736e-04
   118    2.480485999587e-15
   119    1.383717125246e-03
   120    1.270363116381e-04
   121    9.809174443182e-06
   122   -3.454092998891e-15
   123   -1.199153216692e-03
   124   -1.508664798918e-04
   125   -1.477615529815e-04
   126    5.494446266265e-15
   127    1.208488281003e-04
   128   -8.862689077774e-16
   129   -9.726990772620e-16
   130    3.800133589583e-05
   131    7.315784294617e-05
   132    3.204966318370e-05
   133    5.321300138512e-05
   134    4.431883299385e-05
   135    1.290932553110e-05
   136   -6.356595781412e-16
   137   -1.370165198018e-04
   138    2.246474275560e-05
   139    2.535972366222e-05
   140    4.619635548117e-16
   141   -8.804172865659e-04
   142    1.879387695503e-04
   143    4.315516289990e-04
   144   -3.250521299767e-16
   145   -1.469300316337e-03
   146    7.133173770772e-04
   147    2.867831889573e-04
   148   -2.160484234374e-15
   149    1.521674972468e-05
   150   -5.999379699722e-16
   151    6.869121176691e-16
   152   -3.025292370123e-05
   153    1.467217724961e-05
   154    7.187118219911e-05
   155    1.233813778835e-04
   156    1.289434754765e-04
   157    7.777183554946e-05
   158    1.244282976613e-15
   159   -3.918511812812e-04
   160    2.017880712475e-04
   161    1.194197084303e-04
   162   -2.838823948840e-15
   163   -1.295418610085e-03
   164    2.302344849267e-04
   165    1.172473041053e-04
   166    7.292062486071e-15
   167   -2.755484467089e-03
   168    7.435775936222e-04
   169   -2.024114713179e-04
   170   -1.912580502578e-14
   171    1.732252078543e-05
   172    1.714430018599e-15
   173   -1.425774626431e-16
   174    2.358212315552e-05
   175    3.021463273008e-05
   176    2.986931065694e-05
   177    5.113759411696e-05
   178   -3.370930198588e-05
   179    4.482487810464e-05
   180   -6.105752420487e-16
   181   -1.348850907321e-04
   182   -6.273940679548e-05
   183   -4.002550585191e-05
   184    5.161140796970e-16
   185   -1.386768525311e-03
   186    6.223050468736e-04
   187   -1.740488631836e-04
   188    4.286911191946e-15
   189   -4.804000788727e-03
   190   -4.588152102806e-04
   191   -2.548664417272e-03
   192   -1.627699595970e-14
   193    2.239457962639e-05
   194   -9.443384351089e-16
   195   -9.808507245246e-16
   196    6.027295391521e-05
   197   -5.637441579529e-05
   198    2.850711664719e-05
   199   -5.805266189443e-05
   200    8.755360994432e-05
   201    6.504755420185e-04
   202    3.459149338932e-05
   203   -2.324809814157e-05
   204    7.794208008091e-16
Sym=X
Ene= 0.003922
Spin=Alpha
Occup=0
     1   -1.324421066156e-15
     2   -1.555393043783e-15
     3   -4.820082901503e-15
     4   -3.375613156189e-15
     5    3.543807478998e-02
     6    1.199139099882e-14
     7    6.622972001456e-15
     8   -1.370733490539e-14
     9    5.401228906193e-02
    10   -1.465850910122e-13
    11    1.372799143195e-14
    12   -1.697314428017e-13
    13    7.668004814288e-02
    14   -5.672601508569e-12
    15   -1.447402585423e-12
    16   -1.149100868599e-12
    17    2.513121077974e-02
    18   -3.732630534316e-15
    19    4.171934164371e-02
    20   -1.019992370877e-02
    21   -1.213869789049e-15
    22    9.874379100395e-16
    23    4.983753626344e-15
    24    6.050988530688e-14
    25    3.013072225615e-13
    26    6.962982433697e-14
    27    4.694837651277e-15
    28    2.817552560438e-15
    29   -1.575716745264e-02
    30    2.697232170173e-15
    31   -6.098472476021e-14
    32   -1.038161927143e-14
    33   -4.499005211078e-13
    34   -3.310309337981e-15
    35   -4.108080059311e-15
    36    4.692632304012e-03
    37   -8.849215636251e-15
    38    1.748600451235e-14
    39   -2.649865271193e-13
    40   -1.507949942535e-13
    41   -7.803251780986e-16
    42   -6.418182659958e-15
    43   -9.582457075517e-04
    44   -4.538290372985e-16
    45   -8.044358544777e-16
    46   -3.300381401761e-15
    47    1.768260410002e-15
    48    2.652697625589e-03
    49    1.657400783854e-14
    50   -2.594242186436e-15
    51    4.220851265467e-15
    52    1.669045268327e-03
    53   -1.059528917803e-13
    54   -1.058385836308e-13
    55    3.544354610490e-14
    56    3.538572647585e-02
    57    6.125835657444e-13
    58    1.387510558729e-13
    59   -9.102054206824e-14
    60    2.091277786433e-02
    61    2.833519325398e-15
    62   -3.087542924609e-02
    63    4.370062043575e-02
    64    2.873205375510e-15
    65    5.333341003451e-15
    66   -7.531686224764e-16
    67    5.314253652344e-16
    68    2.146722982907e-16
    69    2.261423210357e-15
    70    1.321515874236e-01
    71    2.938070846148e-15
    72   -3.109225229846e-15
    73   -4.867338488468e-15
    74    2.001041308695e-01
    75   -2.608792782109e-14
    76    2.571546138704e-15
    77    3.242511935067e-14
    78    1.954554639445e-01
    79   -1.115075778963e-13
    80   -5.319872681509e-14
    81   -4.394730345326e-15
    82    4.493411546949e-02
    83   -1.234006723635e-15
    84    8.151444706338e-03
    85   -2.928778340131e-03
    86    7.093315464407e-16
    87   -2.342506515427e-15
    88    7.812165076430e-16
    89   -4.883995930765e-17
    90   -5.139666938673e-15
    91    2.564574139791e-15
    92    1.316587269950e-02
    93   -1.089176080871e-14
    94    9.716518538228e-16
    95   -2.210576062812e-15
    96    2.482094983165e-02
    97    1.249903022635e-13
    98    1.567003831845e-14
    99   -6.041556792552e-15
   100    5.751472133088e-03
   101   -1.359643955398e-12
   102    2.952888073143e-13
   103    2.403960197708e-13
   104   -4.762668442752e-05
   105   -7.415162625543e-15
   106   -6.396877036964e-03
   107   -2.476598797482e-02
   108    1.106575046721e-15
   109    2.968877397343e-15
   110   -5.420580177764e-16
   111   -9.187692114134e-17
   112    6.421057815102e-15
   113   -3.627292730219e-15
   114   -9.357960887195e-02
   115    2.086818230333e-15
   116    8.658367620947e-15
   117   -4.822461421476e-15
   118   -1.172565322132e-01
   119   -2.605119468400e-14
   120   -1.094628551537e-14
   121    4.698825202947e-14
   122   -8.988909281316e-02
   123   -4.253966338658e-14
   124    8.394780372793e-14
   125   -5.223798243426e-14
   126   -2.441450913496e-02
   127    1.545297150099e-15
   128    3.055292570986e-03
   129    8.833601815758e-04
   130   -9.304509932296e-16
   131   -2.701988305976e-15
   132   -6.966774297982e-16
   133   -2.065195819318e-15
   134   -2.576521839674e-15
   135   -2.079195920490e-15
   136   -2.137385934038e-02
   137    7.049596102613e-15
   138    2.888349977110e-16
   139   -1.825642027656e-14
   140   -3.084440203633e-02
   141    6.601567841202e-14
   142   -2.812183106850e-14
   143    5.460491241054e-14
   144   -4.993816180746e-02
   145   -4.781158734072e-14
   146    1.718479425366e-13
   147    4.280077477869e-13
   148   -9.240690849811e-03
   149   -4.441053694702e-16
   150   -4.116566060178e-04
   151    9.368469795691e-04
   152    3.916581283750e-15
   153    1.189045022261e-15
   154   -1.099927097085e-15
   155   -8.384324236235e-16
   156   -3.147988875908e-15
   157   -2.183511416801e-15
   158   -1.911048306612e-01
   159    6.677689612889e-15
   160   -2.215843494539e-14
   161   -7.735049259693e-15
   162   -2.985027073229e-01
   163    1.522045524677e-15
   164    1.861606502358e-13
   165    6.996193785168e-14
   166   -3.477947510194e-01
   167    4.045410028405e-13
   168    5.256925906556e-13
   169    4.108188715384e-13
   170   -1.039746143449e-01
   171    3.012306370623e-15
   172   -2.739334025494e-03
   173   -2.996810258309e-03
   174   -4.330371673196e-15
   175   -1.778175621500e-15
   176   -7.557290183693e-16
   177    2.611570043977e-16
   178   -2.490545702431e-15
   179    2.317866105616e-15
   180    1.256752592602e-01
   181    1.257517296791e-14
   182   -2.273820448792e-14
   183   -8.411647491577e-15
   184    1.998849896272e-01
   185   -3.170795944397e-14
   186   -1.586466199271e-14
   187    3.902022197960e-14
   188    2.350003969378e-01
   189    6.470956421257e-12
   190   -1.609502549013e-12
   191   -2.476376736982e-13
   192    3.653817360361e-02
   193    7.339039408163e-15
   194   -1.241541687495e-03
   195   -1.226593744419e-03
   196    3.696036822681e-16
   197    2.865022539711e-16
   198   -4.223622417197e-15
   199    4.982963837023e-14
   200   -8.981793941410e-14
   201    3.920142398783e-13
   202   -7.114873129668e-15
   203    1.841203317476e-15
   204    1.147738253751e-02
[5D]
