[Molden Format]
[Atoms] (Angs)
  C      1    6     -0.00714236     -1.70213747     -0.00000000
  H      2    1     -2.06882847     -1.44022412      0.00000000
  H      3    1     -0.12337987     -2.77567521      0.00000000
  H      4    1      0.04651892      1.98813947     -0.00000000
  C      5    6     -1.21953563      0.40211669      0.00000000
  O      6    8     -2.25921553      1.03043814      0.00000000
  C      7    6      1.28797806      0.34644937     -0.00000000
  O      8    8      2.31273661      1.00537216     -0.00000000
  N      9    7      0.03446295      0.97739857     -0.00000000
  N     10    7     -1.17287765     -0.98229824      0.00000000
  C     11    6      1.20107039     -1.10433419     -0.00000000
  H     12    1      2.11220096     -1.67699125     -0.00000000
[GTO]
1    0
S    6    1.000000
   4.56324000E+03    1.96665000E-03 
   6.82024000E+02    1.52306000E-02 
   1.54973000E+02    7.61269000E-02 
   4.44553000E+01    2.60801000E-01 
   1.30290000E+01    6.16462000E-01 
   1.82773000E+00    2.21006000E-01 
SP   3    1.000000
   2.09642000E+01    1.14660000E-01   4.02487000E-02 
   4.80331000E+00    9.19999000E-01   2.37594000E-01 
   1.45933000E+00   -3.03068000E-03   8.15854000E-01 
SP   1    1.000000
   4.83456000E-01    1.00000000E+00   1.00000000E+00 
SP   1    1.000000
   1.45585000E-01    1.00000000E+00   1.00000000E+00 
SP   1    1.000000
   4.38000000E-02    1.00000000E+00   1.00000000E+00 
D    1    1.000000
   6.26000000E-01    1.00000000E+00 

2    0
S    3    1.000000
   3.38650000E+01    2.54938000E-02 
   5.09479000E+00    1.90373000E-01 
   1.15879000E+00    8.52161000E-01 
S    1    1.000000
   3.25840000E-01    1.00000000E+00 
S    1    1.000000
   1.02741000E-01    1.00000000E+00 
S    1    1.000000
   3.60000000E-02    1.00000000E+00 
P    1    1.000000
   7.50000000E-01    1.00000000E+00 

3    0
S    3    1.000000
   3.38650000E+01    2.54938000E-02 
   5.09479000E+00    1.90373000E-01 
   1.15879000E+00    8.52161000E-01 
S    1    1.000000
   3.25840000E-01    1.00000000E+00 
S    1    1.000000
   1.02741000E-01    1.00000000E+00 
S    1    1.000000
   3.60000000E-02    1.00000000E+00 
P    1    1.000000
   7.50000000E-01    1.00000000E+00 

4    0
S    3    1.000000
   3.38650000E+01    2.54938000E-02 
   5.09479000E+00    1.90373000E-01 
   1.15879000E+00    8.52161000E-01 
S    1    1.000000
   3.25840000E-01    1.00000000E+00 
S    1    1.000000
   1.02741000E-01    1.00000000E+00 
S    1    1.000000
   3.60000000E-02    1.00000000E+00 
P    1    1.000000
   7.50000000E-01    1.00000000E+00 

5    0
S    6    1.000000
   4.56324000E+03    1.96665000E-03 
   6.82024000E+02    1.52306000E-02 
   1.54973000E+02    7.61269000E-02 
   4.44553000E+01    2.60801000E-01 
   1.30290000E+01    6.16462000E-01 
   1.82773000E+00    2.21006000E-01 
SP   3    1.000000
   2.09642000E+01    1.14660000E-01   4.02487000E-02 
   4.80331000E+00    9.19999000E-01   2.37594000E-01 
   1.45933000E+00   -3.03068000E-03   8.15854000E-01 
SP   1    1.000000
   4.83456000E-01    1.00000000E+00   1.00000000E+00 
SP   1    1.000000
   1.45585000E-01    1.00000000E+00   1.00000000E+00 
SP   1    1.000000
   4.38000000E-02    1.00000000E+00   1.00000000E+00 
D    1    1.000000
   6.26000000E-01    1.00000000E+00 

6    0
S    6    1.000000
   8.58850000E+03    1.89515000E-03 
   1.29723000E+03    1.43859000E-02 
   2.99296000E+02    7.07320000E-02 
   8.73771000E+01    2.40001000E-01 
   2.56789000E+01    5.94797000E-01 
   3.74004000E+00    2.80802000E-01 
SP   3    1.000000
   4.21175000E+01    1.13889000E-01   3.65114000E-02 
   9.62837000E+00    9.20811000E-01   2.37153000E-01 
   2.85332000E+00   -3.27447000E-03   8.19702000E-01 
SP   1    1.000000
   9.05661000E-01    1.00000000E+00   1.00000000E+00 
SP   1    1.000000
   2.55611000E-01    1.00000000E+00   1.00000000E+00 
SP   1    1.000000
   8.45000000E-02    1.00000000E+00   1.00000000E+00 
D    1    1.000000
   1.29200000E+00    1.00000000E+00 

7    0
S    6    1.000000
   4.56324000E+03    1.96665000E-03 
   6.82024000E+02    1.52306000E-02 
   1.54973000E+02    7.61269000E-02 
   4.44553000E+01    2.60801000E-01 
   1.30290000E+01    6.16462000E-01 
   1.82773000E+00    2.21006000E-01 
SP   3    1.000000
   2.09642000E+01    1.14660000E-01   4.02487000E-02 
   4.80331000E+00    9.19999000E-01   2.37594000E-01 
   1.45933000E+00   -3.03068000E-03   8.15854000E-01 
SP   1    1.000000
   4.83456000E-01    1.00000000E+00   1.00000000E+00 
SP   1    1.000000
   1.45585000E-01    1.00000000E+00   1.00000000E+00 
SP   1    1.000000
   4.38000000E-02    1.00000000E+00   1.00000000E+00 
D    1    1.000000
   6.26000000E-01    1.00000000E+00 

8    0
S    6    1.000000
   8.58850000E+03    1.89515000E-03 
   1.29723000E+03    1.43859000E-02 
   2.99296000E+02    7.07320000E-02 
   8.73771000E+01    2.40001000E-01 
   2.56789000E+01    5.94797000E-01 
   3.74004000E+00    2.80802000E-01 
SP   3    1.000000
   4.21175000E+01    1.13889000E-01   3.65114000E-02 
   9.62837000E+00    9.20811000E-01   2.37153000E-01 
   2.85332000E+00   -3.27447000E-03   8.19702000E-01 
SP   1    1.000000
   9.05661000E-01    1.00000000E+00   1.00000000E+00 
SP   1    1.000000
   2.55611000E-01    1.00000000E+00   1.00000000E+00 
SP   1    1.000000
   8.45000000E-02    1.00000000E+00   1.00000000E+00 
D    1    1.000000
   1.29200000E+00    1.00000000E+00 

9    0
S    6    1.000000
   6.29348000E+03    1.96979000E-03 
   9.49044000E+02    1.49613000E-02 
   2.18776000E+02    7.35006000E-02 
   6.36916000E+01    2.48937000E-01 
   1.88282000E+01    6.02460000E-01 
   2.72023000E+00    2.56202000E-01 
SP   3    1.000000
   3.06331000E+01    1.11906000E-01   3.83119000E-02 
   7.02614000E+00    9.21666000E-01   2.37403000E-01 
   2.11205000E+00   -2.56919000E-03   8.17592000E-01 
SP   1    1.000000
   6.84009000E-01    1.00000000E+00   1.00000000E+00 
SP   1    1.000000
   2.00878000E-01    1.00000000E+00   1.00000000E+00 
SP   1    1.000000
   6.39000000E-02    1.00000000E+00   1.00000000E+00 
D    1    1.000000
   9.13000000E-01    1.00000000E+00 

10    0
S    6    1.000000
   6.29348000E+03    1.96979000E-03 
   9.49044000E+02    1.49613000E-02 
   2.18776000E+02    7.35006000E-02 
   6.36916000E+01    2.48937000E-01 
   1.88282000E+01    6.02460000E-01 
   2.72023000E+00    2.56202000E-01 
SP   3    1.000000
   3.06331000E+01    1.11906000E-01   3.83119000E-02 
   7.02614000E+00    9.21666000E-01   2.37403000E-01 
   2.11205000E+00   -2.56919000E-03   8.17592000E-01 
SP   1    1.000000
   6.84009000E-01    1.00000000E+00   1.00000000E+00 
SP   1    1.000000
   2.00878000E-01    1.00000000E+00   1.00000000E+00 
SP   1    1.000000
   6.39000000E-02    1.00000000E+00   1.00000000E+00 
D    1    1.000000
   9.13000000E-01    1.00000000E+00 

11    0
S    6    1.000000
   4.56324000E+03    1.96665000E-03 
   6.82024000E+02    1.52306000E-02 
   1.54973000E+02    7.61269000E-02 
   4.44553000E+01    2.60801000E-01 
   1.30290000E+01    6.16462000E-01 
   1.82773000E+00    2.21006000E-01 
SP   3    1.000000
   2.09642000E+01    1.14660000E-01   4.02487000E-02 
   4.80331000E+00    9.19999000E-01   2.37594000E-01 
   1.45933000E+00   -3.03068000E-03   8.15854000E-01 
SP   1    1.000000
   4.83456000E-01    1.00000000E+00   1.00000000E+00 
SP   1    1.000000
   1.45585000E-01    1.00000000E+00   1.00000000E+00 
SP   1    1.000000
   4.38000000E-02    1.00000000E+00   1.00000000E+00 
D    1    1.000000
   6.26000000E-01    1.00000000E+00 

12    0
S    3    1.000000
   3.38650000E+01    2.54938000E-02 
   5.09479000E+00    1.90373000E-01 
   1.15879000E+00    8.52161000E-01 
S    1    1.000000
   3.25840000E-01    1.00000000E+00 
S    1    1.000000
   1.02741000E-01    1.00000000E+00 
S    1    1.000000
   3.60000000E-02    1.00000000E+00 
P    1    1.000000
   7.50000000E-01    1.00000000E+00 

[MO]
Sym=X
Ene= -0.018600
Spin=Alpha
Occup=1
     1    6.818298183138e-08
     2    1.099079613076e-06
     3   -3.205737335193e-06
     4   -3.375484499591e-07
     5   -5.356185180775e-16
     6   -1.074875618005e-05
     7    1.018345422806e-05
     8   -1.135073944912e-06
     9    9.185031923172e-16
    10    6.215982474478e-04
    11    1.369135952170e-04
    12    2.582987737134e-04
    13   -5.643110126462e-15
    14   -8.049644760189e-05
    15   -3.153956677952e-04
    16    6.117127266128e-04
    17    2.185530399533e-14
    18   -9.276156034868e-07
    19   -8.767879685375e-16
    20   -9.371601607427e-16
    21    3.944423647742e-06
    22   -4.566136278026e-06
    23   -1.026257712579e-07
    24   -5.952764241025e-06
    25    3.581803231744e-05
    26   -7.429405349153e-05
    27    3.365495679537e-06
    28   -9.704238627799e-07
    29    6.477026908609e-16
    30    2.514335209099e-06
    31   -3.851246949177e-06
    32    1.320103919237e-04
    33    3.102389828905e-04
    34   -5.769062769736e-06
    35   -6.275355584862e-07
    36   -9.247444308294e-16
    37   -2.099297424957e-06
    38   -7.418138871035e-05
    39   -1.044003422389e-04
    40   -9.228501373036e-05
    41    1.051881575008e-05
    42    6.770251987835e-06
    43   -4.391762532444e-16
    44    6.622448359633e-07
    45   -1.750140048120e-06
    46   -7.023403057028e-06
    47   -3.522594095623e-07
    48    9.115604098300e-16
    49    1.100344885697e-05
    50    3.170949247654e-05
    51    3.108182015528e-06
    52   -2.276977440164e-15
    53    3.114922283281e-04
    54    1.470468190501e-04
    55   -1.396558562187e-05
    56    1.858647065333e-15
    57    2.665496229665e-04
    58    4.913917193167e-06
    59    1.807118216910e-04
    60    9.854210645181e-15
    61   -4.559171484817e-06
    62    3.283070178019e-16
    63   -1.362834802772e-15
    64    6.993891210463e-06
    65    1.000100468078e-07
    66    4.939324213655e-05
    67    4.120787418310e-05
    68   -2.960603585136e-07
    69    1.591522079057e-07
    70   -2.291693090427e-16
    71    9.359540302050e-06
    72    4.240960742701e-06
    73   -6.165347100835e-07
    74   -2.129681994452e-16
    75   -2.857212771586e-05
    76   -1.764084409439e-05
    77    2.257623181406e-07
    78    2.433039969342e-15
    79    2.507364177541e-04
    80    1.390650815422e-04
    81   -4.495395424240e-05
    82   -3.064360945618e-15
    83   -3.529347461119e-07
    84    3.382698017218e-16
    85   -2.090311477011e-16
    86   -3.892925613081e-07
    87    5.663110343126e-08
    88   -5.252294182653e-06
    89    7.587404900325e-05
    90   -5.788546623997e-05
    91   -4.456227274330e-05
    92    1.064976835146e-15
    93   -3.117094945019e-04
    94   -3.436964353079e-04
    95   -2.110148254555e-04
    96   -1.618175258337e-15
    97    2.009391811031e-04
    98   -6.309743389953e-04
    99   -5.068137715220e-04
   100   -2.268013965948e-16
   101    2.198753016349e-03
   102    6.660446720952e-04
   103   -4.852718968136e-04
   104   -1.466588632202e-15
   105    5.259118847993e-05
   106   -9.508348127427e-16
   107    6.686682861206e-16
   108   -8.628358321819e-05
   109   -1.839019371654e-04
   110   -5.514845369419e-01
   111   -4.716808856831e-01
   112    1.529672622222e-03
   113    9.206177568468e-04
   114   -1.686397461204e-15
   115   -5.510059872284e-03
   116   -6.170223432099e-04
   117   -3.714906251797e-04
   118    2.521633594881e-15
   119    1.367254602018e-03
   120    1.153039206681e-04
   121    6.828304695264e-05
   122   -3.548667725079e-15
   123   -1.194722854332e-03
   124   -1.206361891539e-05
   125   -1.527516970468e-05
   126    6.217028607413e-15
   127    1.192653302409e-04
   128   -8.892099048040e-16
   129   -9.575878486611e-16
   130    3.743108734109e-05
   131    7.496161591244e-05
   132   -3.266917497806e-07
   133   -2.823917362989e-06
   134    1.088978579822e-05
   135   -6.074146346536e-07
   136   -6.213857072405e-16
   137    4.016707391008e-05
   138   -2.884074490162e-05
   139   -1.549517134464e-06
   140    4.848008532985e-16
   141   -3.636133919331e-04
   142    7.247677533449e-05
   143    3.033147073114e-04
   144   -1.996767563865e-16
   145    9.822997876183e-05
   146    5.999112494196e-04
   147    1.402571277313e-04
   148   -2.448040674216e-15
   149    8.931579352340e-06
   150   -6.001938957699e-16
   151    6.839508955669e-16
   152   -2.146671424413e-05
   153    1.164508964207e-05
   154    2.071078809827e-08
   155   -6.761795762264e-07
   156   -3.403572859583e-07
   157   -2.458838576710e-07
   158    1.236180348625e-15
   159    9.418064173815e-06
   160    1.261735471583e-06
   161    1.828672478548e-06
   162   -2.837148139587e-15
   163   -1.507177329523e-04
   164   -7.202510329655e-05
   165   -2.025588420301e-05
   166    7.121172904141e-15
   167   -2.170265187633e-04
   168    4.954054708927e-05
   169   -9.836847141674e-06
   170   -1.841036106047e-14
   171   -8.763690498521e-07
   172    1.718897722013e-15
   173   -1.397261773527e-16
   174   -6.867623350289e-07
   175    4.114360440168e-07
   176   -9.950252278071e-07
   177   -1.979571989002e-06
   178    3.381653708668e-06
   179    1.593827097988e-05
   180   -6.006230981106e-16
   181    2.978530497676e-05
   182   -1.171123424871e-06
   183   -7.381499768641e-05
   184    5.851486717464e-16
   185   -7.521153054677e-04
   186    6.129943094450e-04
   187   -1.598986537686e-04
   188    4.309831791984e-15
   189   -1.642996539457e-03
   190   -7.074919083685e-05
   191   -1.173245860232e-03
   192   -1.413954797154e-14
   193    6.326196546969e-06
   194   -9.575167994276e-16
   195   -9.788769470842e-16
   196    2.959685909762e-05
   197   -2.348880075150e-05
   198    3.927744867511e-06
   199   -1.319194354671e-04
   200   -1.926927584051e-04
   201   -3.705216676273e-04
   202    1.913564600641e-05
   203   -1.139903585760e-05
   204    7.762269859400e-16
Sym=X
Ene= 0.018600
Spin=Alpha
Occup=0
     1    5.325489073807e-03
     2    8.986048943732e-03
     3   -3.950729764538e-02
     4   -2.788661918043e-02
     5   -1.147482409270e-15
     6   -2.515473618262e-02
     7   -6.498513018835e-02
     8   -4.624490000097e-02
     9    5.776264044631e-15
    10   -7.106896223970e-02
    11   -6.836557895855e-02
    12   -8.656861463580e-02
    13   -1.531282619124e-14
    14   -4.512294065232e-01
    15   -1.232014981762e-01
    16   -1.244926584812e-01
    17   -9.274983231003e-16
    18   -1.251475071221e-03
    19    4.851974055853e-15
    20    1.437348857033e-15
    21   -1.034976110139e-02
    22    4.280455682290e-03
    23   -3.351695764463e-03
    24    1.486427443765e-03
    25    2.568121622879e-02
    26   -6.758401427954e-03
    27    1.226679485085e-04
    28    1.247811758163e-03
    29   -1.530846761545e-16
    30    2.657242093836e-02
    31    3.358899162488e-02
    32    9.642564623068e-03
    33   -5.087728413642e-02
    34   -1.460483926842e-03
    35   -5.514761274158e-04
    36    3.065323029724e-15
    37    1.248187961334e-02
    38    2.760195942256e-02
    39    4.162183934575e-03
    40   -2.636761275211e-02
    41   -1.294047182444e-04
    42   -4.929746836703e-04
    43   -8.902306496730e-16
    44   -6.197926667406e-03
    45   -1.054784638250e-02
    46    2.318417972624e-02
    47   -8.875093138050e-04
    48    1.716674763154e-15
    49    2.933224993205e-02
    50    3.843463185089e-02
    51    1.439751209588e-03
    52    5.811823665120e-15
    53    5.510373762266e-02
    54    2.858421253317e-03
    55   -4.712545977986e-02
    56   -2.592309786771e-14
    57    7.583658369651e-02
    58   -6.926836593370e-03
    59   -3.039035185625e-02
    60   -5.271005079683e-15
    61   -3.964753135857e-04
    62    3.524240359518e-15
    63   -5.683272375744e-15
    64    1.868479729840e-02
    65    1.977770526973e-02
    66    7.104924974682e-04
    67    1.185199986253e-03
    68   -5.628310078587e-02
    69   -5.989239073983e-02
    70    1.439469424142e-14
    71   -3.524576940383e-03
    72   -8.404605839154e-02
    73   -9.179875570251e-02
    74    7.481839703905e-15
    75    2.122318910605e-03
    76   -7.993591529281e-02
    77   -9.351937092121e-02
    78   -6.300351163628e-15
    79    1.393975781942e-02
    80   -4.044977123754e-03
    81   -1.067142998130e-02
    82    6.864204421708e-15
    83    6.738178863002e-04
    84   -1.207452187032e-15
    85   -9.113549802271e-16
    86   -4.434287612275e-03
    87   -1.211507719880e-03
    88   -9.658434648502e-03
    89   -1.637690540414e-02
    90    9.283933015009e-03
    91   -6.090767116753e-02
    92    9.994733456716e-16
    93    4.399651546557e-02
    94    1.938855951386e-02
    95   -1.007078567035e-01
    96   -7.230363255452e-16
    97    3.689170142577e-02
    98   -3.240159073448e-02
    99    4.335395308676e-02
   100   -2.159598972318e-14
   101   -2.708213884484e-01
   102   -1.570703620943e-02
   103    1.170407720357e-01
   104    2.097281137688e-14
   105   -1.746924899309e-03
   106    4.641688092953e-16
   107   -6.335432577076e-15
   108   -5.914377994493e-02
   109    3.172269816713e-02
   110    2.952477124681e-03
   111    5.309586699486e-03
   112   -1.515521580358e-01
   113    2.546201262310e-01
   114   -1.688086897167e-14
   115   -2.093175819990e-02
   116   -1.932964069170e-01
   117    3.276047569911e-01
   118   -4.019127848705e-15
   119   -5.314520231981e-03
   120   -1.661778033668e-01
   121    2.612097518649e-01
   122    3.787361610268e-14
   123   -1.352523353348e-02
   124   -1.009380943417e-02
   125    3.814364162073e-02
   126   -1.512086800725e-14
   127   -2.107078657342e-04
   128    5.346521299457e-16
   129   -1.011283634409e-15
   130    1.050170148570e-02
   131   -7.893239460116e-03
   132    1.202671797143e-02
   133    2.042841425562e-02
   134   -8.139885805308e-02
   135    2.399794563640e-02
   136   -5.648704890533e-15
   137   -6.021058105994e-02
   138   -1.227388199545e-01
   139    3.339982776544e-02
   140   -1.400859740909e-14
   141   -1.122736079790e-01
   142   -1.303885427225e-01
   143    4.197311416372e-02
   144    1.819768996653e-14
   145   -8.912658358741e-02
   146    4.575032880906e-02
   147    5.056106872614e-02
   148   -6.327286939495e-15
   149   -1.521729035774e-03
   150   -2.486091344826e-15
   151   -4.055015242759e-16
   152   -3.792736305550e-03
   153   -1.258853716606e-03
   154    7.218114268193e-03
   155    1.211105813758e-02
   156    1.742174631133e-03
   157   -1.293047510157e-02
   158   -4.416104001376e-15
   159   -3.411334093285e-02
   160    3.909060208110e-03
   161   -1.787171288506e-02
   162   -7.456041584664e-15
   163   -7.950775947796e-02
   164    1.767120762814e-02
   165   -2.878594335598e-02
   166    2.226204229337e-14
   167   -3.186998626721e-02
   168    2.406793399421e-02
   169    4.779402515543e-02
   170    1.077879658464e-14
   171   -9.260487364999e-04
   172    1.430335824773e-15
   173    4.948393605098e-15
   174   -4.896610486832e-03
   175   -1.694025090906e-03
   176   -1.185944784266e-02
   177   -1.950341229841e-02
   178    1.819346349379e-02
   179    9.073097547481e-02
   180   -1.156433399086e-15
   181    4.836671364704e-02
   182    2.859380554347e-02
   183    1.282820234912e-01
   184   -8.804866145892e-15
   185    2.228638560038e-01
   186   -3.057534173321e-02
   187    1.396112810292e-01
   188    1.850787791291e-14
   189    7.659069758013e-01
   190   -1.506018334884e-01
   191    5.395174807456e-02
   192   -1.218064218002e-14
   193    2.672077447355e-03
   194    8.436398412321e-15
   195   -2.044899410096e-16
   196   -6.015647613465e-03
   197    2.207277655397e-03
   198   -1.807409366972e-02
   199   -3.377575404260e-02
   200   -2.089144452455e-03
   201    4.402515997700e-02
   202    2.454424061669e-03
   203   -4.252703818029e-04
   204    9.180667641466e-18
[5D]
