[Molden Format]
[Atoms] (Angs)
  C      1    6     -0.00714236     -1.70213747     -0.00000000
  H      2    1     -2.06882847     -1.44022412      0.00000000
  H      3    1     -0.12337987     -2.77567521      0.00000000
  H      4    1      0.04651892      1.98813947     -0.00000000
  C      5    6     -1.21953563      0.40211669      0.00000000
  O      6    8     -2.25921553      1.03043814      0.00000000
  C      7    6      1.28797806      0.34644937     -0.00000000
  O      8    8      2.31273661      1.00537216     -0.00000000
  N      9    7      0.03446295      0.97739857     -0.00000000
  N     10    7     -1.17287765     -0.98229824      0.00000000
  C     11    6      1.20107039     -1.10433419     -0.00000000
  H     12    1      2.11220096     -1.67699125     -0.00000000
[GTO]
1    0
S    6    1.000000
   4.56324000E+03    1.96665000E-03 
   6.82024000E+02    1.52306000E-02 
   1.54973000E+02    7.61269000E-02 
   4.44553000E+01    2.60801000E-01 
   1.30290000E+01    6.16462000E-01 
   1.82773000E+00    2.21006000E-01 
SP   3    1.000000
   2.09642000E+01    1.14660000E-01   4.02487000E-02 
   4.80331000E+00    9.19999000E-01   2.37594000E-01 
   1.45933000E+00   -3.03068000E-03   8.15854000E-01 
SP   1    1.000000
   4.83456000E-01    1.00000000E+00   1.00000000E+00 
SP   1    1.000000
   1.45585000E-01    1.00000000E+00   1.00000000E+00 
SP   1    1.000000
   4.38000000E-02    1.00000000E+00   1.00000000E+00 
D    1    1.000000
   6.26000000E-01    1.00000000E+00 

2    0
S    3    1.000000
   3.38650000E+01    2.54938000E-02 
   5.09479000E+00    1.90373000E-01 
   1.15879000E+00    8.52161000E-01 
S    1    1.000000
   3.25840000E-01    1.00000000E+00 
S    1    1.000000
   1.02741000E-01    1.00000000E+00 
S    1    1.000000
   3.60000000E-02    1.00000000E+00 
P    1    1.000000
   7.50000000E-01    1.00000000E+00 

3    0
S    3    1.000000
   3.38650000E+01    2.54938000E-02 
   5.09479000E+00    1.90373000E-01 
   1.15879000E+00    8.52161000E-01 
S    1    1.000000
   3.25840000E-01    1.00000000E+00 
S    1    1.000000
   1.02741000E-01    1.00000000E+00 
S    1    1.000000
   3.60000000E-02    1.00000000E+00 
P    1    1.000000
   7.50000000E-01    1.00000000E+00 

4    0
S    3    1.000000
   3.38650000E+01    2.54938000E-02 
   5.09479000E+00    1.90373000E-01 
   1.15879000E+00    8.52161000E-01 
S    1    1.000000
   3.25840000E-01    1.00000000E+00 
S    1    1.000000
   1.02741000E-01    1.00000000E+00 
S    1    1.000000
   3.60000000E-02    1.00000000E+00 
P    1    1.000000
   7.50000000E-01    1.00000000E+00 

5    0
S    6    1.000000
   4.56324000E+03    1.96665000E-03 
   6.82024000E+02    1.52306000E-02 
   1.54973000E+02    7.61269000E-02 
   4.44553000E+01    2.60801000E-01 
   1.30290000E+01    6.16462000E-01 
   1.82773000E+00    2.21006000E-01 
SP   3    1.000000
   2.09642000E+01    1.14660000E-01   4.02487000E-02 
   4.80331000E+00    9.19999000E-01   2.37594000E-01 
   1.45933000E+00   -3.03068000E-03   8.15854000E-01 
SP   1    1.000000
   4.83456000E-01    1.00000000E+00   1.00000000E+00 
SP   1    1.000000
   1.45585000E-01    1.00000000E+00   1.00000000E+00 
SP   1    1.000000
   4.38000000E-02    1.00000000E+00   1.00000000E+00 
D    1    1.000000
   6.26000000E-01    1.00000000E+00 

6    0
S    6    1.000000
   8.58850000E+03    1.89515000E-03 
   1.29723000E+03    1.43859000E-02 
   2.99296000E+02    7.07320000E-02 
   8.73771000E+01    2.40001000E-01 
   2.56789000E+01    5.94797000E-01 
   3.74004000E+00    2.80802000E-01 
SP   3    1.000000
   4.21175000E+01    1.13889000E-01   3.65114000E-02 
   9.62837000E+00    9.20811000E-01   2.37153000E-01 
   2.85332000E+00   -3.27447000E-03   8.19702000E-01 
SP   1    1.000000
   9.05661000E-01    1.00000000E+00   1.00000000E+00 
SP   1    1.000000
   2.55611000E-01    1.00000000E+00   1.00000000E+00 
SP   1    1.000000
   8.45000000E-02    1.00000000E+00   1.00000000E+00 
D    1    1.000000
   1.29200000E+00    1.00000000E+00 

7    0
S    6    1.000000
   4.56324000E+03    1.96665000E-03 
   6.82024000E+02    1.52306000E-02 
   1.54973000E+02    7.61269000E-02 
   4.44553000E+01    2.60801000E-01 
   1.30290000E+01    6.16462000E-01 
   1.82773000E+00    2.21006000E-01 
SP   3    1.000000
   2.09642000E+01    1.14660000E-01   4.02487000E-02 
   4.80331000E+00    9.19999000E-01   2.37594000E-01 
   1.45933000E+00   -3.03068000E-03   8.15854000E-01 
SP   1    1.000000
   4.83456000E-01    1.00000000E+00   1.00000000E+00 
SP   1    1.000000
   1.45585000E-01    1.00000000E+00   1.00000000E+00 
SP   1    1.000000
   4.38000000E-02    1.00000000E+00   1.00000000E+00 
D    1    1.000000
   6.26000000E-01    1.00000000E+00 

8    0
S    6    1.000000
   8.58850000E+03    1.89515000E-03 
   1.29723000E+03    1.43859000E-02 
   2.99296000E+02    7.07320000E-02 
   8.73771000E+01    2.40001000E-01 
   2.56789000E+01    5.94797000E-01 
   3.74004000E+00    2.80802000E-01 
SP   3    1.000000
   4.21175000E+01    1.13889000E-01   3.65114000E-02 
   9.62837000E+00    9.20811000E-01   2.37153000E-01 
   2.85332000E+00   -3.27447000E-03   8.19702000E-01 
SP   1    1.000000
   9.05661000E-01    1.00000000E+00   1.00000000E+00 
SP   1    1.000000
   2.55611000E-01    1.00000000E+00   1.00000000E+00 
SP   1    1.000000
   8.45000000E-02    1.00000000E+00   1.00000000E+00 
D    1    1.000000
   1.29200000E+00    1.00000000E+00 

9    0
S    6    1.000000
   6.29348000E+03    1.96979000E-03 
   9.49044000E+02    1.49613000E-02 
   2.18776000E+02    7.35006000E-02 
   6.36916000E+01    2.48937000E-01 
   1.88282000E+01    6.02460000E-01 
   2.72023000E+00    2.56202000E-01 
SP   3    1.000000
   3.06331000E+01    1.11906000E-01   3.83119000E-02 
   7.02614000E+00    9.21666000E-01   2.37403000E-01 
   2.11205000E+00   -2.56919000E-03   8.17592000E-01 
SP   1    1.000000
   6.84009000E-01    1.00000000E+00   1.00000000E+00 
SP   1    1.000000
   2.00878000E-01    1.00000000E+00   1.00000000E+00 
SP   1    1.000000
   6.39000000E-02    1.00000000E+00   1.00000000E+00 
D    1    1.000000
   9.13000000E-01    1.00000000E+00 

10    0
S    6    1.000000
   6.29348000E+03    1.96979000E-03 
   9.49044000E+02    1.49613000E-02 
   2.18776000E+02    7.35006000E-02 
   6.36916000E+01    2.48937000E-01 
   1.88282000E+01    6.02460000E-01 
   2.72023000E+00    2.56202000E-01 
SP   3    1.000000
   3.06331000E+01    1.11906000E-01   3.83119000E-02 
   7.02614000E+00    9.21666000E-01   2.37403000E-01 
   2.11205000E+00   -2.56919000E-03   8.17592000E-01 
SP   1    1.000000
   6.84009000E-01    1.00000000E+00   1.00000000E+00 
SP   1    1.000000
   2.00878000E-01    1.00000000E+00   1.00000000E+00 
SP   1    1.000000
   6.39000000E-02    1.00000000E+00   1.00000000E+00 
D    1    1.000000
   9.13000000E-01    1.00000000E+00 

11    0
S    6    1.000000
   4.56324000E+03    1.96665000E-03 
   6.82024000E+02    1.52306000E-02 
   1.54973000E+02    7.61269000E-02 
   4.44553000E+01    2.60801000E-01 
   1.30290000E+01    6.16462000E-01 
   1.82773000E+00    2.21006000E-01 
SP   3    1.000000
   2.09642000E+01    1.14660000E-01   4.02487000E-02 
   4.80331000E+00    9.19999000E-01   2.37594000E-01 
   1.45933000E+00   -3.03068000E-03   8.15854000E-01 
SP   1    1.000000
   4.83456000E-01    1.00000000E+00   1.00000000E+00 
SP   1    1.000000
   1.45585000E-01    1.00000000E+00   1.00000000E+00 
SP   1    1.000000
   4.38000000E-02    1.00000000E+00   1.00000000E+00 
D    1    1.000000
   6.26000000E-01    1.00000000E+00 

12    0
S    3    1.000000
   3.38650000E+01    2.54938000E-02 
   5.09479000E+00    1.90373000E-01 
   1.15879000E+00    8.52161000E-01 
S    1    1.000000
   3.25840000E-01    1.00000000E+00 
S    1    1.000000
   1.02741000E-01    1.00000000E+00 
S    1    1.000000
   3.60000000E-02    1.00000000E+00 
P    1    1.000000
   7.50000000E-01    1.00000000E+00 

[MO]
Sym=X
Ene= -0.007521
Spin=Alpha
Occup=1
     1   -3.259457537292e-05
     2   -5.611343949321e-05
     3   -3.752435875223e-05
     4   -5.402901707839e-05
     5   -3.204839065080e-16
     6    1.847435043444e-04
     7   -2.288858688995e-05
     8   -1.095762522107e-04
     9    1.604820588272e-15
    10    6.803313001212e-05
    11   -3.385782404733e-04
    12   -3.078652678609e-04
    13   -1.435661671954e-15
    14    1.009188587100e-02
    15   -6.699661740215e-04
    16   -5.122241128590e-04
    17   -6.311788113905e-15
    18    1.220999603283e-05
    19    1.049181732366e-16
    20    1.037729339688e-16
    21    1.159402749095e-05
    22    1.024144546957e-05
    23    1.941772803592e-05
    24    1.248569524550e-04
    25    2.006303262723e-03
    26    4.443002962779e-03
    27   -3.075293196737e-05
    28   -3.243539946750e-05
    29   -9.556259622990e-17
    30   -1.060052026585e-05
    31   -1.196860199613e-05
    32   -7.329528204320e-04
    33   -4.585747399486e-03
    34   -2.252526445649e-05
    35    2.955577933219e-05
    36    6.859632263430e-16
    37    3.665431522113e-06
    38    5.191296951744e-05
    39    5.664403995345e-04
    40    4.476664847912e-04
    41    1.508883161099e-05
    42    4.947766081569e-08
    43    8.424583090539e-16
    44   -1.360836156675e-05
    45   -1.102766074139e-04
    46   -4.905062594541e-05
    47   -5.301175454936e-06
    48   -8.031127390871e-16
    49    3.965443164452e-04
    50   -3.482326547630e-04
    51    1.380679769771e-04
    52    4.310920064639e-15
    53    1.724135924192e-04
    54   -5.727895227307e-04
    55    3.973804743727e-04
    56   -4.220378748411e-15
    57    6.802074842543e-04
    58    7.804406405030e-04
    59    2.701914578152e-04
    60   -7.946243712263e-15
    61   -2.792991405906e-05
    62   -8.438461031669e-16
    63   -6.071845167128e-16
    64    8.487882498724e-05
    65   -2.067045626168e-04
    66    5.514976319702e-01
    67    4.717103941410e-01
    68    1.599396609233e-03
    69   -9.136129359999e-04
    70    1.205352125202e-16
    71    5.419123421733e-03
    72   -5.842918282392e-04
    73    4.582921918398e-04
    74   -4.153652236877e-16
    75   -1.614721140763e-03
    76    1.468955456994e-04
    77    1.211602068393e-05
    78   -1.351238986424e-15
    79    1.219168491328e-03
    80    2.252282961499e-04
    81   -4.516507905220e-05
    82    2.736287157515e-15
    83   -8.284454795457e-05
    84   -3.009707326218e-16
    85    2.661653286119e-16
    86   -3.951092164098e-05
    87    7.392095869311e-05
    88    8.186712808218e-06
    89    1.588371110036e-05
    90    4.419131055747e-06
    91    2.581920501282e-05
    92   -2.661948542692e-16
    93   -4.212148714647e-05
    94    2.562320361241e-05
    95    2.424488617506e-05
    96    2.563181147592e-15
    97   -4.106248986561e-04
    98    4.833295065277e-04
    99    1.933425923356e-04
   100   -3.820590221327e-15
   101    5.896796157082e-03
   102   -1.316058219897e-03
   103   -1.607275577564e-03
   104   -1.624652440039e-14
   105   -3.203497029451e-06
   106   -3.183368990735e-18
   107    3.533201582929e-17
   108   -6.495168794676e-06
   109   -2.478311471419e-05
   110    4.159133315623e-05
   111    3.326318242656e-05
   112    2.734442067141e-05
   113   -1.205436784507e-05
   114    1.545335474598e-15
   115    1.674594056600e-05
   116    3.784980303994e-05
   117   -1.605933484361e-05
   118   -1.107596370147e-15
   119    2.287712414164e-06
   120    5.390426786516e-05
   121   -1.926420014223e-05
   122   -1.514186735561e-15
   123   -8.810261327837e-04
   124    4.017712577969e-04
   125    3.236516962016e-04
   126    6.336339743509e-15
   127   -1.704472009564e-06
   128    4.811083249897e-16
   129    1.074974226010e-15
   130    8.454338748640e-08
   131    1.081561797020e-06
   132    8.574181894313e-06
   133    1.618430541932e-05
   134    7.960957885094e-05
   135   -1.115853563181e-05
   136    4.416699601383e-16
   137   -8.108684407391e-05
   138    7.087585588644e-05
   139   -7.392882909408e-06
   140   -8.610723635803e-18
   141    3.229566566581e-04
   142    2.735736672473e-04
   143   -3.460899337602e-04
   144   -2.396811695107e-15
   145   -1.590081115407e-03
   146    1.277583868496e-03
   147   -6.360538185795e-04
   148    1.288056607886e-14
   149   -5.960332602993e-06
   150    1.923106185581e-16
   151   -7.280905985241e-16
   152    2.353086919077e-05
   153    1.683305561138e-05
   154    5.789397790045e-05
   155    1.004084983149e-04
   156    1.081413468175e-04
   157    4.979672600273e-05
   158   -6.701726444766e-16
   159   -3.306394526871e-04
   160    1.395496013737e-04
   161    1.143843819494e-04
   162    5.803228498467e-17
   163   -6.605872164102e-04
   164    4.730193515939e-04
   165    2.498420450011e-04
   166   -9.024829010578e-16
   167   -2.358363835405e-03
   168    2.233124136142e-03
   169    1.003372038926e-03
   170    6.887429875343e-15
   171   -1.770961529913e-06
   172   -2.527445653494e-16
   173    2.922664807253e-16
   174   -2.406016038949e-05
   175   -9.395770883218e-06
   176   -3.613494571803e-05
   177   -6.322225313311e-05
   178    1.149488490831e-04
   179   -5.705031681078e-05
   180   -1.314638644874e-15
   181    1.940700556927e-04
   182    1.472095953559e-04
   183   -8.218336407606e-05
   184    5.567055575834e-16
   185    1.143850087838e-03
   186    2.492671287145e-04
   187   -1.172026463317e-04
   188   -4.222652299641e-16
   189   -7.005061185002e-03
   190    6.338760774590e-03
   191   -2.336204531712e-03
   192    1.270819265534e-14
   193   -1.155693118458e-06
   194   -2.968963101905e-17
   195   -3.756005729422e-16
   196    5.809304265667e-06
   197    1.864499845019e-05
   198    2.488154465646e-05
   199    4.414215058595e-05
   200   -9.939338559555e-04
   201   -7.286578181821e-03
   202   -2.260660965579e-05
   203    3.235889327190e-05
   204    8.143294287188e-16
Sym=X
Ene= 0.007521
Spin=Alpha
Occup=0
     1    2.928281017430e-15
     2    5.261489292302e-15
     3    1.455246463364e-15
     4   -1.244771720021e-15
     5   -3.186556600511e-02
     6   -4.287239039070e-14
     7    1.473165764462e-14
     8   -2.140499698699e-14
     9   -5.009180995825e-02
    10   -2.346536938397e-13
    11    2.897628670524e-15
    12   -8.584902466862e-14
    13   -9.154065475888e-02
    14    3.618091275288e-12
    15    8.896000971950e-13
    16    7.125734775247e-13
    17    9.039118291234e-03
    18    8.372538370337e-15
    19   -3.765300079523e-02
    20    6.685619290918e-03
    21    9.291138207479e-15
    22    5.277047168400e-15
    23   -4.459670925212e-15
    24    1.879436201484e-13
    25   -2.333307943680e-13
    26    9.341519108209e-14
    27    6.989933678899e-15
    28    2.325380812733e-15
    29    1.311176237314e-02
    30   -4.460301058059e-15
    31    2.277368910203e-14
    32   -1.666379799499e-13
    33    1.389614435983e-14
    34    5.555378778684e-15
    35    2.518650992551e-15
    36   -2.673205592454e-03
    37    6.571808636382e-15
    38   -2.181379831528e-13
    39    3.735703162588e-14
    40    9.274904583674e-14
    41   -2.449895692216e-15
    42    2.355118617876e-14
    43   -8.403506224323e-06
    44   -8.575606931670e-18
    45   -6.993903506656e-16
    46   -3.603684089848e-16
    47   -2.654853013729e-15
    48    1.422621611223e-02
    49    7.890449307990e-15
    50   -4.072940079565e-15
    51    5.939889247554e-15
    52    3.200230776676e-02
    53    1.554457139186e-13
    54   -3.172612180662e-13
    55   -4.226629397174e-13
    56   -7.111808704431e-03
    57   -8.860926396301e-13
    58   -1.678394075306e-13
    59    2.579186346186e-13
    60   -3.250518737095e-02
    61   -3.648477791190e-15
    62    2.289979343801e-02
    63   -4.788071620487e-02
    64   -3.475607810165e-15
    65   -8.289653507649e-15
    66    9.344971069701e-17
    67   -1.983635828431e-15
    68   -1.637978233557e-15
    69   -3.721258755589e-15
    70   -1.858039547863e-01
    71    1.290381907628e-14
    72   -1.958953498932e-15
    73   -5.722364680730e-15
    74   -2.343872904328e-01
    75   -6.130836236285e-14
    76    1.211775514067e-14
    77    7.261020890605e-14
    78   -1.844796202909e-01
    79   -1.210403015735e-13
    80   -2.136786937826e-14
    81    3.113848942093e-14
    82   -2.893373360556e-02
    83    1.001474724200e-15
    84   -8.994325832100e-03
    85    1.268280177485e-03
    86    7.778481740918e-16
    87    1.578975216825e-15
    88   -2.027669627177e-16
    89    1.436405960102e-15
    90    5.463472222256e-15
    91   -6.054840479708e-15
    92   -1.299033359480e-02
    93   -1.721226271248e-14
    94   -2.599620852406e-14
    95    8.450993185678e-15
    96   -2.625577028366e-02
    97    2.029018000143e-13
    98   -1.301807555718e-13
    99   -1.648106615371e-13
   100   -1.342697404270e-03
   101    7.636868464921e-13
   102    2.113572289352e-13
   103   -2.516311093405e-13
   104    3.514887201105e-02
   105   -4.043889895872e-16
   106    1.363115753198e-02
   107    2.090623279189e-02
   108    4.067745317678e-15
   109    1.024210956950e-14
   110   -5.937320220517e-16
   111   -2.077235527906e-15
   112   -6.164289218761e-15
   113    5.853372406429e-15
   114    5.594632643304e-02
   115    1.213385542762e-14
   116   -3.456488661040e-15
   117    1.225101304131e-14
   118    8.439871796759e-02
   119    2.160451488726e-14
   120   -2.156557097014e-15
   121   -4.584016149302e-14
   122    8.735552165369e-02
   123    1.190629065661e-13
   124   -1.239691098224e-13
   125    5.624570137134e-14
   126    2.158686846262e-02
   127   -1.267134171282e-15
   128   -2.477829481655e-03
   129   -9.692312282308e-04
   130    1.019352107032e-15
   131    4.778645334711e-16
   132    7.067214664602e-16
   133    2.669833356913e-15
   134   -1.014809783440e-15
   135   -9.164747103190e-15
   136   -8.024034522791e-04
   137   -3.266234784387e-14
   138   -4.682032687922e-15
   139   -4.729355104882e-14
   140   -2.072139807529e-03
   141    3.135468976493e-13
   142   -1.507386232091e-13
   143    3.483950576150e-13
   144    3.606944344920e-03
   145    4.727069462384e-13
   146   -3.230321083063e-13
   147   -2.066222421597e-13
   148   -1.731133220722e-02
   149   -7.457564241984e-15
   150   -1.395432616670e-03
   151    2.484337627924e-04
   152   -1.083731422244e-14
   153   -2.063802179153e-15
   154   -2.313987823281e-15
   155   -5.517441508109e-15
   156   -5.666426237241e-15
   157   -1.186596683681e-15
   158    1.963405817718e-01
   159    3.866786760711e-14
   160   -4.402189984378e-14
   161   -1.040952358352e-15
   162    3.118168203267e-01
   163   -2.401846667858e-13
   164    3.823030245956e-13
   165   -9.129952903327e-14
   166    3.531335158700e-01
   167   -1.055634067547e-13
   168   -4.096450376581e-13
   169   -2.491758755659e-13
   170    9.299838025933e-02
   171    7.475135582190e-16
   172    1.100238433608e-03
   173    7.771119048630e-03
   174   -1.452620156907e-15
   175   -5.983960770346e-15
   176    8.592154830883e-16
   177   -2.532422125337e-16
   178   -2.753973769144e-15
   179   -3.383726214927e-15
   180   -1.102120584910e-01
   181    4.944358466410e-15
   182    3.994696050222e-15
   183   -1.498257101126e-14
   184   -1.811160585582e-01
   185   -1.184561712312e-13
   186   -7.256222184882e-14
   187   -3.873895627326e-14
   188   -2.003580282063e-01
   189   -3.651838273116e-12
   190    5.043676660249e-13
   191    1.490653330150e-14
   192   -6.062541456535e-02
   193   -1.278773507390e-14
   194    6.663093846879e-03
   195   -1.317457771350e-03
   196   -2.101977553990e-15
   197   -7.391270686884e-15
   198    3.169223611423e-15
   199   -2.288560329689e-14
   200    9.626043263276e-14
   201   -1.750507754440e-13
   202    5.793436598757e-15
   203   -5.156807457793e-15
   204   -9.260629289109e-03
[5D]
