[Molden Format]
[Atoms] (Angs)
  C      1    6     -0.00714236     -1.70213747     -0.00000000
  H      2    1     -2.06882847     -1.44022412      0.00000000
  H      3    1     -0.12337987     -2.77567521      0.00000000
  H      4    1      0.04651892      1.98813947     -0.00000000
  C      5    6     -1.21953563      0.40211669      0.00000000
  O      6    8     -2.25921553      1.03043814      0.00000000
  C      7    6      1.28797806      0.34644937     -0.00000000
  O      8    8      2.31273661      1.00537216     -0.00000000
  N      9    7      0.03446295      0.97739857     -0.00000000
  N     10    7     -1.17287765     -0.98229824      0.00000000
  C     11    6      1.20107039     -1.10433419     -0.00000000
  H     12    1      2.11220096     -1.67699125     -0.00000000
[GTO]
1    0
S    6    1.000000
   4.56324000E+03    1.96665000E-03 
   6.82024000E+02    1.52306000E-02 
   1.54973000E+02    7.61269000E-02 
   4.44553000E+01    2.60801000E-01 
   1.30290000E+01    6.16462000E-01 
   1.82773000E+00    2.21006000E-01 
SP   3    1.000000
   2.09642000E+01    1.14660000E-01   4.02487000E-02 
   4.80331000E+00    9.19999000E-01   2.37594000E-01 
   1.45933000E+00   -3.03068000E-03   8.15854000E-01 
SP   1    1.000000
   4.83456000E-01    1.00000000E+00   1.00000000E+00 
SP   1    1.000000
   1.45585000E-01    1.00000000E+00   1.00000000E+00 
SP   1    1.000000
   4.38000000E-02    1.00000000E+00   1.00000000E+00 
D    1    1.000000
   6.26000000E-01    1.00000000E+00 

2    0
S    3    1.000000
   3.38650000E+01    2.54938000E-02 
   5.09479000E+00    1.90373000E-01 
   1.15879000E+00    8.52161000E-01 
S    1    1.000000
   3.25840000E-01    1.00000000E+00 
S    1    1.000000
   1.02741000E-01    1.00000000E+00 
S    1    1.000000
   3.60000000E-02    1.00000000E+00 
P    1    1.000000
   7.50000000E-01    1.00000000E+00 

3    0
S    3    1.000000
   3.38650000E+01    2.54938000E-02 
   5.09479000E+00    1.90373000E-01 
   1.15879000E+00    8.52161000E-01 
S    1    1.000000
   3.25840000E-01    1.00000000E+00 
S    1    1.000000
   1.02741000E-01    1.00000000E+00 
S    1    1.000000
   3.60000000E-02    1.00000000E+00 
P    1    1.000000
   7.50000000E-01    1.00000000E+00 

4    0
S    3    1.000000
   3.38650000E+01    2.54938000E-02 
   5.09479000E+00    1.90373000E-01 
   1.15879000E+00    8.52161000E-01 
S    1    1.000000
   3.25840000E-01    1.00000000E+00 
S    1    1.000000
   1.02741000E-01    1.00000000E+00 
S    1    1.000000
   3.60000000E-02    1.00000000E+00 
P    1    1.000000
   7.50000000E-01    1.00000000E+00 

5    0
S    6    1.000000
   4.56324000E+03    1.96665000E-03 
   6.82024000E+02    1.52306000E-02 
   1.54973000E+02    7.61269000E-02 
   4.44553000E+01    2.60801000E-01 
   1.30290000E+01    6.16462000E-01 
   1.82773000E+00    2.21006000E-01 
SP   3    1.000000
   2.09642000E+01    1.14660000E-01   4.02487000E-02 
   4.80331000E+00    9.19999000E-01   2.37594000E-01 
   1.45933000E+00   -3.03068000E-03   8.15854000E-01 
SP   1    1.000000
   4.83456000E-01    1.00000000E+00   1.00000000E+00 
SP   1    1.000000
   1.45585000E-01    1.00000000E+00   1.00000000E+00 
SP   1    1.000000
   4.38000000E-02    1.00000000E+00   1.00000000E+00 
D    1    1.000000
   6.26000000E-01    1.00000000E+00 

6    0
S    6    1.000000
   8.58850000E+03    1.89515000E-03 
   1.29723000E+03    1.43859000E-02 
   2.99296000E+02    7.07320000E-02 
   8.73771000E+01    2.40001000E-01 
   2.56789000E+01    5.94797000E-01 
   3.74004000E+00    2.80802000E-01 
SP   3    1.000000
   4.21175000E+01    1.13889000E-01   3.65114000E-02 
   9.62837000E+00    9.20811000E-01   2.37153000E-01 
   2.85332000E+00   -3.27447000E-03   8.19702000E-01 
SP   1    1.000000
   9.05661000E-01    1.00000000E+00   1.00000000E+00 
SP   1    1.000000
   2.55611000E-01    1.00000000E+00   1.00000000E+00 
SP   1    1.000000
   8.45000000E-02    1.00000000E+00   1.00000000E+00 
D    1    1.000000
   1.29200000E+00    1.00000000E+00 

7    0
S    6    1.000000
   4.56324000E+03    1.96665000E-03 
   6.82024000E+02    1.52306000E-02 
   1.54973000E+02    7.61269000E-02 
   4.44553000E+01    2.60801000E-01 
   1.30290000E+01    6.16462000E-01 
   1.82773000E+00    2.21006000E-01 
SP   3    1.000000
   2.09642000E+01    1.14660000E-01   4.02487000E-02 
   4.80331000E+00    9.19999000E-01   2.37594000E-01 
   1.45933000E+00   -3.03068000E-03   8.15854000E-01 
SP   1    1.000000
   4.83456000E-01    1.00000000E+00   1.00000000E+00 
SP   1    1.000000
   1.45585000E-01    1.00000000E+00   1.00000000E+00 
SP   1    1.000000
   4.38000000E-02    1.00000000E+00   1.00000000E+00 
D    1    1.000000
   6.26000000E-01    1.00000000E+00 

8    0
S    6    1.000000
   8.58850000E+03    1.89515000E-03 
   1.29723000E+03    1.43859000E-02 
   2.99296000E+02    7.07320000E-02 
   8.73771000E+01    2.40001000E-01 
   2.56789000E+01    5.94797000E-01 
   3.74004000E+00    2.80802000E-01 
SP   3    1.000000
   4.21175000E+01    1.13889000E-01   3.65114000E-02 
   9.62837000E+00    9.20811000E-01   2.37153000E-01 
   2.85332000E+00   -3.27447000E-03   8.19702000E-01 
SP   1    1.000000
   9.05661000E-01    1.00000000E+00   1.00000000E+00 
SP   1    1.000000
   2.55611000E-01    1.00000000E+00   1.00000000E+00 
SP   1    1.000000
   8.45000000E-02    1.00000000E+00   1.00000000E+00 
D    1    1.000000
   1.29200000E+00    1.00000000E+00 

9    0
S    6    1.000000
   6.29348000E+03    1.96979000E-03 
   9.49044000E+02    1.49613000E-02 
   2.18776000E+02    7.35006000E-02 
   6.36916000E+01    2.48937000E-01 
   1.88282000E+01    6.02460000E-01 
   2.72023000E+00    2.56202000E-01 
SP   3    1.000000
   3.06331000E+01    1.11906000E-01   3.83119000E-02 
   7.02614000E+00    9.21666000E-01   2.37403000E-01 
   2.11205000E+00   -2.56919000E-03   8.17592000E-01 
SP   1    1.000000
   6.84009000E-01    1.00000000E+00   1.00000000E+00 
SP   1    1.000000
   2.00878000E-01    1.00000000E+00   1.00000000E+00 
SP   1    1.000000
   6.39000000E-02    1.00000000E+00   1.00000000E+00 
D    1    1.000000
   9.13000000E-01    1.00000000E+00 

10    0
S    6    1.000000
   6.29348000E+03    1.96979000E-03 
   9.49044000E+02    1.49613000E-02 
   2.18776000E+02    7.35006000E-02 
   6.36916000E+01    2.48937000E-01 
   1.88282000E+01    6.02460000E-01 
   2.72023000E+00    2.56202000E-01 
SP   3    1.000000
   3.06331000E+01    1.11906000E-01   3.83119000E-02 
   7.02614000E+00    9.21666000E-01   2.37403000E-01 
   2.11205000E+00   -2.56919000E-03   8.17592000E-01 
SP   1    1.000000
   6.84009000E-01    1.00000000E+00   1.00000000E+00 
SP   1    1.000000
   2.00878000E-01    1.00000000E+00   1.00000000E+00 
SP   1    1.000000
   6.39000000E-02    1.00000000E+00   1.00000000E+00 
D    1    1.000000
   9.13000000E-01    1.00000000E+00 

11    0
S    6    1.000000
   4.56324000E+03    1.96665000E-03 
   6.82024000E+02    1.52306000E-02 
   1.54973000E+02    7.61269000E-02 
   4.44553000E+01    2.60801000E-01 
   1.30290000E+01    6.16462000E-01 
   1.82773000E+00    2.21006000E-01 
SP   3    1.000000
   2.09642000E+01    1.14660000E-01   4.02487000E-02 
   4.80331000E+00    9.19999000E-01   2.37594000E-01 
   1.45933000E+00   -3.03068000E-03   8.15854000E-01 
SP   1    1.000000
   4.83456000E-01    1.00000000E+00   1.00000000E+00 
SP   1    1.000000
   1.45585000E-01    1.00000000E+00   1.00000000E+00 
SP   1    1.000000
   4.38000000E-02    1.00000000E+00   1.00000000E+00 
D    1    1.000000
   6.26000000E-01    1.00000000E+00 

12    0
S    3    1.000000
   3.38650000E+01    2.54938000E-02 
   5.09479000E+00    1.90373000E-01 
   1.15879000E+00    8.52161000E-01 
S    1    1.000000
   3.25840000E-01    1.00000000E+00 
S    1    1.000000
   1.02741000E-01    1.00000000E+00 
S    1    1.000000
   3.60000000E-02    1.00000000E+00 
P    1    1.000000
   7.50000000E-01    1.00000000E+00 

[MO]
Sym=X
Ene= -0.114173
Spin=Alpha
Occup=1
     1    1.147917238657e-05
     2    2.097970864270e-05
     3    5.674502009282e-06
     4    2.894126230915e-05
     5   -3.189953989466e-16
     6   -7.161197734063e-05
     7    3.953738514916e-05
     8    1.948571584742e-05
     9    1.597411153502e-15
    10   -3.609915906376e-04
    11    2.208526304244e-04
    12    1.548510020046e-04
    13   -1.405187991128e-15
    14   -2.702134593166e-03
    15    1.113629376239e-03
    16    4.110113002932e-04
    17   -8.888409961122e-15
    18   -1.467326839173e-06
    19    8.307053882768e-17
    20    1.208153136735e-16
    21    4.790502763313e-07
    22    3.607178035070e-06
    23   -2.346517516118e-08
    24    3.327336798486e-05
    25   -5.055317377380e-04
    26   -1.039414217319e-03
    27    2.108131627352e-05
    28   -4.146044851794e-07
    29   -6.955547018273e-17
    30   -3.379839860193e-06
    31    5.868858263352e-05
    32    2.654267595925e-04
    33    1.710080428003e-03
    34    5.305183843076e-06
    35   -4.459547240723e-06
    36    6.791963222771e-16
    37    3.970745069292e-06
    38    5.836075740850e-05
    39   -6.098709455702e-05
    40    3.286120967753e-04
    41    9.495756454837e-06
    42   -6.742223196285e-06
    43    8.472671251138e-16
    44    1.095597183500e-05
    45   -6.694647914745e-05
    46   -6.510296460691e-05
    47    5.170289600571e-05
    48   -9.535223619257e-16
    49    2.778421546756e-04
    50   -3.660777860557e-04
    51    2.446076983795e-04
    52    4.045385142745e-15
    53   -1.068118622838e-04
    54   -4.704875448100e-04
    55    2.712858726884e-04
    56   -4.835479479611e-15
    57    4.272318519825e-04
    58    5.478022050569e-04
    59   -6.773838965323e-04
    60   -6.220609088102e-15
    61   -6.554652975381e-05
    62   -8.700619383491e-16
    63   -6.154291203283e-16
    64    9.553046840912e-05
    65   -1.706414524811e-04
    66    5.514730391796e-01
    67    4.716661901698e-01
    68    1.554449126867e-03
    69   -9.724036512098e-04
    70    2.400432126096e-16
    71    5.565805470951e-03
    72   -6.489911526920e-04
    73    3.667559000050e-04
    74   -2.650933317003e-16
    75   -1.261651499918e-03
    76    1.280924906595e-04
    77   -1.187208578192e-04
    78   -9.200395776874e-16
    79    1.470308986030e-03
    80    7.950401684388e-07
    81    2.057541695958e-06
    82    1.934366203543e-15
    83   -8.855745488159e-05
    84   -2.969034984573e-16
    85    2.742896113628e-16
    86   -3.863137519620e-05
    87    6.822480987356e-05
    88   -3.338023882610e-06
    89   -4.350889276815e-06
    90   -7.624795850232e-06
    91   -5.818109468790e-06
    92   -2.195076391632e-16
    93    6.744136409564e-06
    94    1.561363828972e-05
    95   -2.188874440626e-05
    96    2.658179725917e-15
    97   -1.229498860718e-04
    98   -3.510790424972e-05
    99   -1.319205923991e-04
   100   -3.638788399813e-15
   101   -9.156254026533e-04
   102    6.275394286519e-04
   103   -3.998307719963e-04
   104   -1.834859034983e-14
   105    5.822847297962e-06
   106   -2.388520829638e-17
   107    2.788724154723e-17
   108   -8.398128721394e-06
   109    1.203771473065e-05
   110   -9.487556197085e-07
   111    1.391387175386e-06
   112   -9.267214863436e-06
   113    2.719722775178e-06
   114    1.445861701680e-15
   115   -1.798785613474e-05
   116   -1.166790840767e-05
   117    6.639813579955e-06
   118   -1.194919033296e-15
   119    4.584644954168e-05
   120   -3.605588135502e-05
   121   -3.149907186965e-06
   122   -1.947018491480e-15
   123    4.248104555376e-05
   124   -2.619853360040e-05
   125   -1.463261080382e-05
   126    7.392516855665e-15
   127    1.072043366478e-06
   128    4.768179354583e-16
   129    1.088877146931e-15
   130    9.956589391382e-07
   131    2.667009542105e-08
   132   -1.226170534714e-06
   133   -1.063377092861e-06
   134   -1.116179985889e-05
   135    2.421004445015e-06
   136    4.976078583241e-16
   137   -1.655494905354e-05
   138   -6.481701759577e-05
   139    1.100152570378e-05
   140    2.450726313742e-17
   141    2.771291690764e-04
   142   -2.573574812843e-05
   143   -2.199930290468e-04
   144   -2.026561812398e-15
   145    5.270668972054e-04
   146    3.035924194510e-04
   147    1.012674022615e-04
   148    1.207287192193e-14
   149   -7.339351585901e-06
   150    2.256476528261e-16
   151   -7.262188955080e-16
   152    2.244860502171e-05
   153    3.616994089229e-06
   154   -1.662963048699e-05
   155   -2.774110534438e-05
   156   -2.403032049755e-05
   157   -2.787496705799e-05
   158   -6.612457728503e-16
   159    6.311575740387e-05
   160   -6.014255912854e-05
   161   -1.887345102099e-06
   162    9.770838148230e-17
   163    5.585671707787e-04
   164    1.664875383786e-04
   165    8.129744752528e-06
   166   -8.488880086755e-16
   167    7.299396170772e-04
   168   -3.439524229067e-04
   169   -8.358304652448e-04
   170    7.940369528065e-15
   171   -8.648317867522e-06
   172   -2.561957156656e-16
   173    2.679432369870e-16
   174   -1.589117103587e-05
   175   -1.323599644722e-05
   176    1.406750142549e-05
   177    2.341415917108e-05
   178   -4.042653522364e-05
   179    2.005900965334e-05
   180   -1.394765253297e-15
   181   -5.798053066538e-05
   182   -6.395447003367e-05
   183    3.971626563640e-05
   184    4.903779142023e-16
   185   -5.019501164548e-04
   186   -2.895651839262e-05
   187   -6.274107775337e-07
   188   -9.307545094142e-16
   189   -1.682008784146e-03
   190   -1.600386991334e-03
   191    3.728669682478e-04
   192    1.606018754047e-14
   193    7.753858808836e-06
   194   -2.790326633609e-17
   195   -3.618980139028e-16
   196   -1.314109199259e-06
   197   -1.159984446600e-05
   198   -6.271133281781e-06
   199   -2.389617880702e-05
   200    3.313480426206e-04
   201    2.324205641232e-03
   202    7.866948944627e-06
   203   -1.125009155307e-05
   204    8.143001201802e-16
Sym=X
Ene= 0.114173
Spin=Alpha
Occup=0
     1    2.015535039029e-15
     2    3.649033115834e-15
     3    3.861648093878e-16
     4   -1.523150752225e-16
     5   -1.020105728131e-01
     6   -2.799880339390e-14
     7    7.295833948085e-15
     8   -8.831039384123e-15
     9   -1.702456186238e-01
    10   -1.589566244504e-13
    11    2.538354481758e-14
    12   -1.264213391635e-13
    13   -1.836475311464e-01
    14   -9.539658349427e-13
    15   -3.846571662541e-13
    16   -2.186140293307e-13
    17   -2.957986503406e-02
    18    3.146860518397e-15
    19   -3.200235816315e-02
    20   -6.097311145117e-03
    21    5.437774431279e-15
    22    1.078003823698e-15
    23   -1.473620523434e-16
    24    1.250598461168e-13
    25    6.507814363778e-14
    26    3.014353608975e-14
    27    7.645558239525e-15
    28    4.191732970524e-15
    29    1.489622893282e-02
    30   -2.323217433159e-15
    31    8.735505009693e-15
    32   -1.868927869285e-13
    33   -3.579133571889e-13
    34    2.915147226358e-15
    35   -2.105097401327e-16
    36   -6.926892534317e-03
    37   -9.654574142322e-16
    38   -9.702872379055e-14
    39   -2.133391753147e-13
    40    1.616506984723e-13
    41   -1.981438403451e-15
    42    8.410851003950e-15
    43   -1.201096430199e-03
    44   -5.597135049895e-16
    45   -1.115377458231e-15
    46   -1.124403580559e-15
    47   -1.066698191219e-15
    48    2.184331609389e-02
    49    1.007997293314e-14
    50   -8.280203497550e-15
    51    5.298192388469e-15
    52    4.476459804519e-02
    53    5.401914556092e-14
    54   -2.625697849890e-13
    55   -2.400594408765e-13
    56    5.967482045637e-03
    57   -3.701795784767e-13
    58   -1.764915470952e-13
    59   -1.019426762351e-13
    60   -2.402647513671e-02
    61   -2.737975449951e-15
    62    8.528688477813e-03
    63   -3.442388007797e-02
    64   -3.939662722379e-15
    65   -4.473472590614e-15
    66    1.176377064559e-16
    67   -1.334438815724e-15
    68   -9.822489038045e-16
    69   -2.055510057393e-15
    70   -1.140098902437e-01
    71    1.019677781965e-14
    72   -7.792666855369e-17
    73    3.989435038697e-16
    74   -1.432750341300e-01
    75   -5.690052794398e-14
    76   -2.967252886797e-15
    77    4.376599808782e-14
    78   -1.138324049640e-01
    79   -1.505231695617e-13
    80   -3.566926019143e-14
    81    6.117912351085e-14
    82   -1.635295547710e-02
    83    6.964940759085e-16
    84   -4.435072928436e-03
    85    9.348496436629e-04
    86    2.098927663289e-17
    87    6.810912315380e-16
    88   -1.323217126369e-17
    89    2.017863849332e-15
    90    1.600871991791e-15
    91   -2.874276777038e-15
    92    3.546213960085e-04
    93   -1.835213890576e-14
    94   -1.769060940549e-14
    95    6.673240014740e-15
    96   -2.619440514987e-04
    97    1.428233048542e-13
    98   -6.664597086870e-14
    99   -2.542939763201e-14
   100    1.316313369076e-02
   101    2.200135022739e-12
   102    4.076591219245e-13
   103   -9.025707115305e-13
   104    2.743316062557e-02
   105   -1.453900136223e-15
   106    2.535468473273e-02
   107    3.221165722296e-02
   108    1.062906902823e-15
   109    6.822490344383e-15
   110   -6.028713888547e-16
   111   -1.468606314605e-15
   112   -2.591150390200e-15
   113    5.362662035583e-15
   114    1.038198981957e-01
   115    9.919602493124e-15
   116   -1.654901090332e-15
   117    1.207739533532e-14
   118    1.566650597077e-01
   119   -2.370395003978e-15
   120    1.604309206497e-14
   121   -3.807214393428e-14
   122    1.571871790904e-01
   123   -4.271317145692e-14
   124   -6.723875024505e-14
   125    7.154437037186e-14
   126    3.660265364103e-02
   127   -6.807588892790e-16
   128   -6.125212399042e-03
   129   -2.663244439522e-03
   130    2.174255093226e-16
   131    4.600866391110e-16
   132    2.928047206808e-16
   133    1.636270767060e-15
   134   -1.265181384512e-15
   135   -5.982463260177e-15
   136   -1.880150988701e-02
   137   -2.357864328821e-14
   138   -3.104575555706e-15
   139   -3.295097408627e-14
   140   -2.832061180778e-02
   141    2.278219563811e-13
   142   -1.251797294942e-13
   143    1.880100537654e-13
   144   -3.728907906210e-02
   145    4.539783811322e-13
   146   -1.745401337816e-13
   147    2.835778683077e-13
   148   -1.491847819131e-02
   149   -9.703391785739e-16
   150   -3.694602752291e-04
   151    8.794756827994e-04
   152   -4.710423785685e-15
   153   -2.908784591528e-16
   154   -1.315933408410e-15
   155   -3.852063335989e-15
   156   -3.004358072956e-15
   157   -3.042353110669e-16
   158    1.430131664981e-01
   159    2.633427302632e-14
   160   -3.133442734571e-14
   161   -5.396139695798e-15
   162    2.255831332049e-01
   163   -1.487658569359e-13
   164    2.830793656047e-13
   165   -3.120767801877e-14
   166    2.772021321510e-01
   167    9.811215808560e-15
   168    1.329982417655e-13
   169    9.585631031867e-14
   170    9.320631009598e-02
   171    2.060698296895e-15
   172   -8.270360476814e-03
   173    9.400512262471e-03
   174   -3.057885949941e-15
   175   -3.008984020554e-15
   176    1.302506158216e-15
   177   -3.200519754316e-16
   178   -1.433165161337e-15
   179   -8.867014137411e-16
   180   -1.531220659452e-01
   181   -2.884474502211e-16
   182   -4.928439225173e-15
   183   -1.214059344315e-14
   184   -2.533384478074e-01
   185   -3.103603760397e-14
   186   -4.678879462163e-14
   187    5.329713471569e-14
   188   -2.541889449166e-01
   189   -9.168581784128e-13
   190   -7.819805337594e-13
   191   -8.881884516243e-13
   192   -4.032708324365e-02
   193   -8.296518849720e-15
   194    1.720391149554e-02
   195   -5.117359075151e-04
   196   -7.275043430905e-16
   197   -4.890370376128e-15
   198    3.481322252148e-15
   199   -8.369623930011e-15
   200    1.093468976768e-13
   201    9.734572897082e-14
   202    5.389748540256e-16
   203   -2.677539264810e-15
   204   -1.157776439824e-02
[5D]
