[Molden Format]
[Atoms] (Angs)
  C      1    6     -0.00714236     -1.70213747     -0.00000000
  H      2    1     -2.06882847     -1.44022412      0.00000000
  H      3    1     -0.12337987     -2.77567521      0.00000000
  H      4    1      0.04651892      1.98813947     -0.00000000
  C      5    6     -1.21953563      0.40211669      0.00000000
  O      6    8     -2.25921553      1.03043814      0.00000000
  C      7    6      1.28797806      0.34644937     -0.00000000
  O      8    8      2.31273661      1.00537216     -0.00000000
  N      9    7      0.03446295      0.97739857     -0.00000000
  N     10    7     -1.17287765     -0.98229824      0.00000000
  C     11    6      1.20107039     -1.10433419     -0.00000000
  H     12    1      2.11220096     -1.67699125     -0.00000000
[GTO]
1    0
S    6    1.000000
   4.56324000E+03    1.96665000E-03 
   6.82024000E+02    1.52306000E-02 
   1.54973000E+02    7.61269000E-02 
   4.44553000E+01    2.60801000E-01 
   1.30290000E+01    6.16462000E-01 
   1.82773000E+00    2.21006000E-01 
SP   3    1.000000
   2.09642000E+01    1.14660000E-01   4.02487000E-02 
   4.80331000E+00    9.19999000E-01   2.37594000E-01 
   1.45933000E+00   -3.03068000E-03   8.15854000E-01 
SP   1    1.000000
   4.83456000E-01    1.00000000E+00   1.00000000E+00 
SP   1    1.000000
   1.45585000E-01    1.00000000E+00   1.00000000E+00 
SP   1    1.000000
   4.38000000E-02    1.00000000E+00   1.00000000E+00 
D    1    1.000000
   6.26000000E-01    1.00000000E+00 

2    0
S    3    1.000000
   3.38650000E+01    2.54938000E-02 
   5.09479000E+00    1.90373000E-01 
   1.15879000E+00    8.52161000E-01 
S    1    1.000000
   3.25840000E-01    1.00000000E+00 
S    1    1.000000
   1.02741000E-01    1.00000000E+00 
S    1    1.000000
   3.60000000E-02    1.00000000E+00 
P    1    1.000000
   7.50000000E-01    1.00000000E+00 

3    0
S    3    1.000000
   3.38650000E+01    2.54938000E-02 
   5.09479000E+00    1.90373000E-01 
   1.15879000E+00    8.52161000E-01 
S    1    1.000000
   3.25840000E-01    1.00000000E+00 
S    1    1.000000
   1.02741000E-01    1.00000000E+00 
S    1    1.000000
   3.60000000E-02    1.00000000E+00 
P    1    1.000000
   7.50000000E-01    1.00000000E+00 

4    0
S    3    1.000000
   3.38650000E+01    2.54938000E-02 
   5.09479000E+00    1.90373000E-01 
   1.15879000E+00    8.52161000E-01 
S    1    1.000000
   3.25840000E-01    1.00000000E+00 
S    1    1.000000
   1.02741000E-01    1.00000000E+00 
S    1    1.000000
   3.60000000E-02    1.00000000E+00 
P    1    1.000000
   7.50000000E-01    1.00000000E+00 

5    0
S    6    1.000000
   4.56324000E+03    1.96665000E-03 
   6.82024000E+02    1.52306000E-02 
   1.54973000E+02    7.61269000E-02 
   4.44553000E+01    2.60801000E-01 
   1.30290000E+01    6.16462000E-01 
   1.82773000E+00    2.21006000E-01 
SP   3    1.000000
   2.09642000E+01    1.14660000E-01   4.02487000E-02 
   4.80331000E+00    9.19999000E-01   2.37594000E-01 
   1.45933000E+00   -3.03068000E-03   8.15854000E-01 
SP   1    1.000000
   4.83456000E-01    1.00000000E+00   1.00000000E+00 
SP   1    1.000000
   1.45585000E-01    1.00000000E+00   1.00000000E+00 
SP   1    1.000000
   4.38000000E-02    1.00000000E+00   1.00000000E+00 
D    1    1.000000
   6.26000000E-01    1.00000000E+00 

6    0
S    6    1.000000
   8.58850000E+03    1.89515000E-03 
   1.29723000E+03    1.43859000E-02 
   2.99296000E+02    7.07320000E-02 
   8.73771000E+01    2.40001000E-01 
   2.56789000E+01    5.94797000E-01 
   3.74004000E+00    2.80802000E-01 
SP   3    1.000000
   4.21175000E+01    1.13889000E-01   3.65114000E-02 
   9.62837000E+00    9.20811000E-01   2.37153000E-01 
   2.85332000E+00   -3.27447000E-03   8.19702000E-01 
SP   1    1.000000
   9.05661000E-01    1.00000000E+00   1.00000000E+00 
SP   1    1.000000
   2.55611000E-01    1.00000000E+00   1.00000000E+00 
SP   1    1.000000
   8.45000000E-02    1.00000000E+00   1.00000000E+00 
D    1    1.000000
   1.29200000E+00    1.00000000E+00 

7    0
S    6    1.000000
   4.56324000E+03    1.96665000E-03 
   6.82024000E+02    1.52306000E-02 
   1.54973000E+02    7.61269000E-02 
   4.44553000E+01    2.60801000E-01 
   1.30290000E+01    6.16462000E-01 
   1.82773000E+00    2.21006000E-01 
SP   3    1.000000
   2.09642000E+01    1.14660000E-01   4.02487000E-02 
   4.80331000E+00    9.19999000E-01   2.37594000E-01 
   1.45933000E+00   -3.03068000E-03   8.15854000E-01 
SP   1    1.000000
   4.83456000E-01    1.00000000E+00   1.00000000E+00 
SP   1    1.000000
   1.45585000E-01    1.00000000E+00   1.00000000E+00 
SP   1    1.000000
   4.38000000E-02    1.00000000E+00   1.00000000E+00 
D    1    1.000000
   6.26000000E-01    1.00000000E+00 

8    0
S    6    1.000000
   8.58850000E+03    1.89515000E-03 
   1.29723000E+03    1.43859000E-02 
   2.99296000E+02    7.07320000E-02 
   8.73771000E+01    2.40001000E-01 
   2.56789000E+01    5.94797000E-01 
   3.74004000E+00    2.80802000E-01 
SP   3    1.000000
   4.21175000E+01    1.13889000E-01   3.65114000E-02 
   9.62837000E+00    9.20811000E-01   2.37153000E-01 
   2.85332000E+00   -3.27447000E-03   8.19702000E-01 
SP   1    1.000000
   9.05661000E-01    1.00000000E+00   1.00000000E+00 
SP   1    1.000000
   2.55611000E-01    1.00000000E+00   1.00000000E+00 
SP   1    1.000000
   8.45000000E-02    1.00000000E+00   1.00000000E+00 
D    1    1.000000
   1.29200000E+00    1.00000000E+00 

9    0
S    6    1.000000
   6.29348000E+03    1.96979000E-03 
   9.49044000E+02    1.49613000E-02 
   2.18776000E+02    7.35006000E-02 
   6.36916000E+01    2.48937000E-01 
   1.88282000E+01    6.02460000E-01 
   2.72023000E+00    2.56202000E-01 
SP   3    1.000000
   3.06331000E+01    1.11906000E-01   3.83119000E-02 
   7.02614000E+00    9.21666000E-01   2.37403000E-01 
   2.11205000E+00   -2.56919000E-03   8.17592000E-01 
SP   1    1.000000
   6.84009000E-01    1.00000000E+00   1.00000000E+00 
SP   1    1.000000
   2.00878000E-01    1.00000000E+00   1.00000000E+00 
SP   1    1.000000
   6.39000000E-02    1.00000000E+00   1.00000000E+00 
D    1    1.000000
   9.13000000E-01    1.00000000E+00 

10    0
S    6    1.000000
   6.29348000E+03    1.96979000E-03 
   9.49044000E+02    1.49613000E-02 
   2.18776000E+02    7.35006000E-02 
   6.36916000E+01    2.48937000E-01 
   1.88282000E+01    6.02460000E-01 
   2.72023000E+00    2.56202000E-01 
SP   3    1.000000
   3.06331000E+01    1.11906000E-01   3.83119000E-02 
   7.02614000E+00    9.21666000E-01   2.37403000E-01 
   2.11205000E+00   -2.56919000E-03   8.17592000E-01 
SP   1    1.000000
   6.84009000E-01    1.00000000E+00   1.00000000E+00 
SP   1    1.000000
   2.00878000E-01    1.00000000E+00   1.00000000E+00 
SP   1    1.000000
   6.39000000E-02    1.00000000E+00   1.00000000E+00 
D    1    1.000000
   9.13000000E-01    1.00000000E+00 

11    0
S    6    1.000000
   4.56324000E+03    1.96665000E-03 
   6.82024000E+02    1.52306000E-02 
   1.54973000E+02    7.61269000E-02 
   4.44553000E+01    2.60801000E-01 
   1.30290000E+01    6.16462000E-01 
   1.82773000E+00    2.21006000E-01 
SP   3    1.000000
   2.09642000E+01    1.14660000E-01   4.02487000E-02 
   4.80331000E+00    9.19999000E-01   2.37594000E-01 
   1.45933000E+00   -3.03068000E-03   8.15854000E-01 
SP   1    1.000000
   4.83456000E-01    1.00000000E+00   1.00000000E+00 
SP   1    1.000000
   1.45585000E-01    1.00000000E+00   1.00000000E+00 
SP   1    1.000000
   4.38000000E-02    1.00000000E+00   1.00000000E+00 
D    1    1.000000
   6.26000000E-01    1.00000000E+00 

12    0
S    3    1.000000
   3.38650000E+01    2.54938000E-02 
   5.09479000E+00    1.90373000E-01 
   1.15879000E+00    8.52161000E-01 
S    1    1.000000
   3.25840000E-01    1.00000000E+00 
S    1    1.000000
   1.02741000E-01    1.00000000E+00 
S    1    1.000000
   3.60000000E-02    1.00000000E+00 
P    1    1.000000
   7.50000000E-01    1.00000000E+00 

[MO]
Sym=X
Ene= -0.082321
Spin=Alpha
Occup=1
     1   -8.467671493345e-06
     2   -1.380552504111e-05
     3   -1.097788128820e-05
     4   -1.732195406263e-05
     5   -5.373302098535e-16
     6    3.858307084331e-05
     7   -7.445168371688e-07
     8   -2.775355960318e-05
     9    9.160394139891e-16
    10    7.145805559002e-04
    11    3.050975924018e-05
    12    1.713271126119e-04
    13   -5.650866867353e-15
    14    2.347598264630e-03
    15   -6.609831550180e-04
    16    4.473610126168e-04
    17    2.230723454668e-14
    18    1.465517274113e-06
    19   -8.727543967416e-16
    20   -9.398954331104e-16
    21    6.432528015740e-06
    22   -3.334589108973e-06
    23    2.879343379270e-06
    24    7.606094137748e-06
    25    4.830712659017e-04
    26    9.029604288115e-04
    27   -5.385668555035e-06
    28   -6.567442204647e-06
    29    6.428442863049e-16
    30    1.177099766960e-06
    31   -1.809338087159e-05
    32   -5.809342326823e-05
    33   -8.600198570353e-04
    34   -1.095700537195e-05
    35    5.959005298072e-06
    36   -9.238995070891e-16
    37   -2.397749585433e-06
    38   -7.602420949570e-05
    39    1.043231255375e-05
    40   -7.545524937718e-05
    41    1.156562694874e-05
    42    7.931725395187e-06
    43   -4.404121438652e-16
    44   -3.787870168294e-06
    45   -9.600080100338e-06
    46   -4.138492407821e-06
    47   -1.078721811308e-05
    48    9.400300871687e-16
    49    3.318655342502e-05
    50    3.506484731892e-05
    51   -1.640635798779e-05
    52   -2.226939147598e-15
    53    3.545774258517e-04
    54    1.305501282423e-04
    55    9.591566504915e-06
    56    1.974659469337e-15
    57    2.864309171762e-04
    58    5.037619976400e-05
    59    3.589111337164e-04
    60    9.557123575594e-15
    61    1.891650105036e-06
    62    3.334664450014e-16
    63   -1.361876466173e-15
    64    5.138808782268e-06
    65   -6.098784884397e-06
    66   -2.210482608779e-05
    67   -1.601464900931e-05
    68    7.171855806570e-06
    69    1.064614857262e-05
    70   -2.519267805567e-16
    71   -1.622073411615e-05
    72    1.543122346554e-05
    73    1.545248403496e-05
    74   -2.415305743105e-16
    75   -8.789704640613e-05
    76   -1.405872158357e-05
    77    2.292709489486e-05
    78    2.351853671844e-15
    79    2.130626289128e-04
    80    1.793658361542e-04
    81   -5.437848513096e-05
    82   -2.924190590699e-15
    83    5.812315998786e-07
    84    3.378756169739e-16
    85   -2.101739779327e-16
    86   -5.442257247862e-07
    87    9.973252912603e-07
    88   -3.103273657546e-06
    89    7.964343859455e-05
    90   -5.550893984591e-05
    91   -3.880129599076e-05
    92    1.056670167423e-15
    93   -3.205178943257e-04
    94   -3.417076697555e-04
    95   -2.025349247894e-04
    96   -1.636020117020e-15
    97    1.456594900454e-04
    98   -5.336109145950e-04
    99   -4.439993850957e-04
   100   -2.620224287920e-16
   101    3.432209715142e-03
   102    2.980135389248e-04
   103   -6.979688276233e-04
   104   -1.092745924378e-15
   105    5.076748262733e-05
   106   -9.468966119261e-16
   107    6.696086018906e-16
   108   -8.590116483911e-05
   109   -1.910304856127e-04
   110   -5.514853727466e-01
   111   -4.716825205581e-01
   112    1.536642467827e-03
   113    9.180620299359e-04
   114   -1.668259199749e-15
   115   -5.503113357363e-03
   116   -6.076464014641e-04
   117   -3.754472543810e-04
   118    2.538259009008e-15
   119    1.359561985672e-03
   120    1.321355815223e-04
   121    6.550682636545e-05
   122   -3.469730773022e-15
   123   -1.365756332211e-03
   124    6.885678598319e-05
   125    4.796139654849e-05
   126    6.027526785382e-15
   127    1.187172074448e-04
   128   -8.886714781003e-16
   129   -9.598771920768e-16
   130    3.725757244763e-05
   131    7.518077519533e-05
   132    1.099147614138e-06
   133   -2.993975041134e-07
   134    2.734669565066e-05
   135   -3.372081857166e-06
   136   -6.318399071826e-16
   137    3.023476486532e-05
   138   -4.198978719279e-06
   139   -5.371452161055e-06
   140    4.784480691630e-16
   141   -3.503260544270e-04
   142    1.263905966129e-04
   143    2.790988041631e-04
   144   -2.678076490480e-16
   145   -2.856864673916e-04
   146    7.782537928217e-04
   147    2.766175821309e-06
   148   -2.308030086374e-15
   149    9.141880451410e-06
   150   -6.064225125967e-16
   151    6.835140353421e-16
   152   -2.120403561743e-05
   153    1.407460524621e-05
   154    1.287379146472e-05
   155    2.142981623720e-05
   156    2.177505767005e-05
   157    1.326919948626e-05
   158    1.235004988558e-15
   159   -5.804528680258e-05
   160    3.472959227461e-05
   161    2.212737491237e-05
   162   -2.843194064326e-15
   163   -3.652459093777e-04
   164   -2.338737907147e-05
   165    2.543738391233e-05
   166    7.108222932711e-15
   167   -7.856609725217e-04
   168    5.202436376111e-04
   169    3.319240066770e-04
   170   -1.859541073124e-14
   171   -6.179299495500e-08
   172    1.719772615156e-15
   173   -1.350982129250e-16
   174   -2.370449591013e-06
   175    9.343744541504e-07
   176   -1.093702722551e-05
   177   -1.912788484678e-05
   178    3.356477634999e-05
   179    8.104359473763e-07
   180   -5.851818936314e-16
   181    7.988903760146e-05
   182    4.036097274176e-05
   183   -9.780626443565e-05
   184    5.995599508156e-16
   185   -4.349916911082e-04
   186    6.686873730956e-04
   187   -1.808059135519e-04
   188    4.403423569442e-15
   189   -2.603450698203e-03
   190    1.423129403042e-03
   191   -1.662432045820e-03
   192   -1.473738484488e-14
   193    4.553454196039e-06
   194   -9.565673061691e-16
   195   -9.818575186667e-16
   196    3.069339134234e-05
   197   -1.743768282380e-05
   198    9.545250091540e-06
   199   -1.204420356239e-04
   200   -4.468313972129e-04
   201   -2.179974931371e-03
   202    1.315314578221e-05
   203   -2.944111475171e-06
   204    7.758411690638e-16
Sym=X
Ene= 0.082321
Spin=Alpha
Occup=0
     1    1.039593281516e-15
     2    1.375631403639e-15
     3    4.894952890464e-15
     4    4.200273277985e-15
     5   -8.907170630654e-02
     6   -8.422974499198e-15
     7   -8.243937426140e-15
     8    1.782291699909e-14
     9   -1.496533047346e-01
    10    1.783665374415e-13
    11   -3.212559131892e-14
    12    1.223857330064e-13
    13   -1.547549973769e-01
    14    3.239370422329e-12
    15    5.854321285784e-13
    16    8.117145112548e-13
    17   -2.235164565616e-02
    18    4.124747883132e-16
    19   -3.566542519519e-02
    20   -2.442688881275e-03
    21   -9.567553978949e-16
    22   -4.883245029530e-15
    23   -2.657054360357e-15
    24   -7.921523360425e-14
    25   -1.226647913757e-13
    26   -1.290394083686e-13
    27   -3.105499425182e-15
    28    6.219572173265e-16
    29    1.392406527502e-02
    30   -1.501469703616e-15
    31    3.997533474606e-14
    32   -1.266468533056e-14
    33    2.072815134470e-13
    34    2.022287471006e-15
    35    1.766082090382e-15
    36   -6.774589845596e-03
    37    3.595609873572e-15
    38    5.851913967618e-14
    39   -3.904564582125e-14
    40    2.699764712476e-13
    41    1.550181656942e-15
    42   -1.835312233484e-15
    43    1.094808781618e-03
    44    2.098317387050e-16
    45    5.306546813747e-16
    46    1.706902503219e-15
    47   -1.052782622687e-15
    48    1.055711091292e-02
    49   -1.050997791272e-14
    50   -5.881398596303e-15
    51   -5.932943723545e-15
    52    2.280186740979e-02
    53    2.847201199987e-14
    54    5.454468207928e-14
    55    8.731835841491e-14
    56   -1.340704802355e-02
    57   -6.209036696399e-13
    58   -2.313505525022e-13
    59   -9.696746958305e-14
    60   -2.710515472643e-02
    61   -2.693225404260e-15
    62    2.207089203490e-02
    63   -3.388580747322e-02
    64   -5.483039748264e-15
    65   -5.112421770727e-15
    66    1.614023169153e-16
    67   -1.059590057456e-15
    68   -7.319526917362e-16
    69   -3.287172552461e-15
    70   -9.659901852432e-02
    71    1.226742368668e-15
    72    5.930090438857e-15
    73    8.659761498855e-15
    74   -1.462452503046e-01
    75    7.503592571575e-15
    76   -2.722197504432e-14
    77   -5.084908010273e-14
    78   -1.469909495655e-01
    79   -2.001218955559e-14
    80    2.763648471556e-14
    81    8.886420247917e-14
    82   -3.165030179284e-02
    83    3.714459647229e-16
    84   -5.266217409120e-03
    85    2.040978131520e-03
    86   -9.185502398848e-16
    87    1.494096715711e-15
    88   -2.516112300059e-16
    89    1.430121064845e-15
    90    3.086457706970e-15
    91   -3.077490179833e-15
    92   -1.722623637062e-02
    93    8.164533146924e-15
    94    3.839964903528e-16
    95   -2.267265037586e-15
    96   -3.401015863632e-02
    97   -2.274192497064e-13
    98    2.700153748197e-14
    99    8.362907204615e-14
   100   -1.461394837580e-02
   101    2.492698293793e-12
   102    1.761433685830e-13
   103   -8.307893334012e-13
   104    3.632286576724e-02
   105    5.312496189272e-15
   106    1.423451261070e-02
   107    3.329888888820e-02
   108   -5.449073212788e-15
   109   -8.920015660994e-16
   110    2.147464067408e-17
   111   -3.684555379865e-16
   112   -6.074245461216e-15
   113    7.778665988603e-15
   114    1.279209534214e-01
   115   -3.853423043589e-16
   116   -7.656896236116e-15
   117    9.377448295646e-15
   118    1.596220628767e-01
   119    1.386247105199e-14
   120    2.635927394938e-14
   121   -5.265186855990e-14
   122    1.273668489801e-01
   123   -7.495092175440e-14
   124   -1.110122567570e-13
   125    2.905092945855e-14
   126    2.015916291676e-02
   127   -6.733360855381e-16
   128   -4.846590445685e-03
   129   -1.417968650023e-03
   130    2.615974797841e-16
   131    1.216726635058e-15
   132    3.488489039392e-16
   133    1.104471751203e-15
   134    2.611506880258e-15
   135    3.022598509219e-15
   136    1.501774315577e-02
   137   -5.070466928369e-15
   138   -2.640094457447e-15
   139    2.208085009371e-14
   140    2.317334675878e-02
   141   -7.092932085772e-14
   142    2.050355499142e-14
   143   -1.524825813811e-13
   144    3.238022009259e-02
   145    6.163477015769e-13
   146   -5.297852492737e-14
   147   -7.819461862091e-14
   148    2.633660385667e-03
   149    3.341813551422e-15
   150   -9.820439760066e-04
   151    3.740754113998e-04
   152   -5.220975687425e-16
   153    5.743450217861e-17
   154    4.934670292338e-16
   155   -5.399920040148e-16
   156    2.705178801583e-15
   157    2.756092134218e-15
   158    1.473836749702e-01
   159   -5.029569632950e-16
   160    2.259022228611e-14
   161    2.335291162643e-15
   162    2.320419199559e-01
   163    4.943214251680e-14
   164   -2.004526492854e-13
   165   -1.071074405478e-14
   166    2.852599039012e-01
   167   -4.557961763310e-13
   168   -3.007889623539e-13
   169   -1.041567156273e-13
   170    9.645271906648e-02
   171   -1.755649461610e-15
   172   -3.860744413614e-03
   173    6.483144439427e-03
   174    3.015848960489e-15
   175    2.602318503472e-15
   176    1.371011118213e-15
   177    4.176507936530e-16
   178    2.134606785948e-15
   179    4.967227878759e-16
   180   -1.564072337881e-01
   181   -1.188216749136e-14
   182    1.339113988570e-14
   183    8.348298600625e-15
   184   -2.619152982543e-01
   185    7.622869772851e-14
   186    1.997788646328e-15
   187    2.818473258986e-14
   188   -2.607070385858e-01
   189   -5.286441763652e-12
   190    5.886844258110e-13
   191   -6.330858017164e-13
   192   -4.462358685204e-02
   193   -8.079233595927e-15
   194    1.310395715294e-02
   195   -4.526175858275e-03
   196    1.441203047481e-15
   197    1.469654282891e-16
   198    5.391554662831e-15
   199   -3.606940722679e-14
   200    1.471877840581e-13
   201   -2.470410942525e-13
   202    6.151061891921e-15
   203   -1.641368677466e-15
   204   -1.159955507512e-02
[5D]
