[Molden Format]
[Atoms] (Angs)
  C      1    6     -0.00714236     -1.70213747     -0.00000000
  H      2    1     -2.06882847     -1.44022412      0.00000000
  H      3    1     -0.12337987     -2.77567521      0.00000000
  H      4    1      0.04651892      1.98813947     -0.00000000
  C      5    6     -1.21953563      0.40211669      0.00000000
  O      6    8     -2.25921553      1.03043814      0.00000000
  C      7    6      1.28797806      0.34644937     -0.00000000
  O      8    8      2.31273661      1.00537216     -0.00000000
  N      9    7      0.03446295      0.97739857     -0.00000000
  N     10    7     -1.17287765     -0.98229824      0.00000000
  C     11    6      1.20107039     -1.10433419     -0.00000000
  H     12    1      2.11220096     -1.67699125     -0.00000000
[GTO]
1    0
S    6    1.000000
   4.56324000E+03    1.96665000E-03 
   6.82024000E+02    1.52306000E-02 
   1.54973000E+02    7.61269000E-02 
   4.44553000E+01    2.60801000E-01 
   1.30290000E+01    6.16462000E-01 
   1.82773000E+00    2.21006000E-01 
SP   3    1.000000
   2.09642000E+01    1.14660000E-01   4.02487000E-02 
   4.80331000E+00    9.19999000E-01   2.37594000E-01 
   1.45933000E+00   -3.03068000E-03   8.15854000E-01 
SP   1    1.000000
   4.83456000E-01    1.00000000E+00   1.00000000E+00 
SP   1    1.000000
   1.45585000E-01    1.00000000E+00   1.00000000E+00 
SP   1    1.000000
   4.38000000E-02    1.00000000E+00   1.00000000E+00 
D    1    1.000000
   6.26000000E-01    1.00000000E+00 

2    0
S    3    1.000000
   3.38650000E+01    2.54938000E-02 
   5.09479000E+00    1.90373000E-01 
   1.15879000E+00    8.52161000E-01 
S    1    1.000000
   3.25840000E-01    1.00000000E+00 
S    1    1.000000
   1.02741000E-01    1.00000000E+00 
S    1    1.000000
   3.60000000E-02    1.00000000E+00 
P    1    1.000000
   7.50000000E-01    1.00000000E+00 

3    0
S    3    1.000000
   3.38650000E+01    2.54938000E-02 
   5.09479000E+00    1.90373000E-01 
   1.15879000E+00    8.52161000E-01 
S    1    1.000000
   3.25840000E-01    1.00000000E+00 
S    1    1.000000
   1.02741000E-01    1.00000000E+00 
S    1    1.000000
   3.60000000E-02    1.00000000E+00 
P    1    1.000000
   7.50000000E-01    1.00000000E+00 

4    0
S    3    1.000000
   3.38650000E+01    2.54938000E-02 
   5.09479000E+00    1.90373000E-01 
   1.15879000E+00    8.52161000E-01 
S    1    1.000000
   3.25840000E-01    1.00000000E+00 
S    1    1.000000
   1.02741000E-01    1.00000000E+00 
S    1    1.000000
   3.60000000E-02    1.00000000E+00 
P    1    1.000000
   7.50000000E-01    1.00000000E+00 

5    0
S    6    1.000000
   4.56324000E+03    1.96665000E-03 
   6.82024000E+02    1.52306000E-02 
   1.54973000E+02    7.61269000E-02 
   4.44553000E+01    2.60801000E-01 
   1.30290000E+01    6.16462000E-01 
   1.82773000E+00    2.21006000E-01 
SP   3    1.000000
   2.09642000E+01    1.14660000E-01   4.02487000E-02 
   4.80331000E+00    9.19999000E-01   2.37594000E-01 
   1.45933000E+00   -3.03068000E-03   8.15854000E-01 
SP   1    1.000000
   4.83456000E-01    1.00000000E+00   1.00000000E+00 
SP   1    1.000000
   1.45585000E-01    1.00000000E+00   1.00000000E+00 
SP   1    1.000000
   4.38000000E-02    1.00000000E+00   1.00000000E+00 
D    1    1.000000
   6.26000000E-01    1.00000000E+00 

6    0
S    6    1.000000
   8.58850000E+03    1.89515000E-03 
   1.29723000E+03    1.43859000E-02 
   2.99296000E+02    7.07320000E-02 
   8.73771000E+01    2.40001000E-01 
   2.56789000E+01    5.94797000E-01 
   3.74004000E+00    2.80802000E-01 
SP   3    1.000000
   4.21175000E+01    1.13889000E-01   3.65114000E-02 
   9.62837000E+00    9.20811000E-01   2.37153000E-01 
   2.85332000E+00   -3.27447000E-03   8.19702000E-01 
SP   1    1.000000
   9.05661000E-01    1.00000000E+00   1.00000000E+00 
SP   1    1.000000
   2.55611000E-01    1.00000000E+00   1.00000000E+00 
SP   1    1.000000
   8.45000000E-02    1.00000000E+00   1.00000000E+00 
D    1    1.000000
   1.29200000E+00    1.00000000E+00 

7    0
S    6    1.000000
   4.56324000E+03    1.96665000E-03 
   6.82024000E+02    1.52306000E-02 
   1.54973000E+02    7.61269000E-02 
   4.44553000E+01    2.60801000E-01 
   1.30290000E+01    6.16462000E-01 
   1.82773000E+00    2.21006000E-01 
SP   3    1.000000
   2.09642000E+01    1.14660000E-01   4.02487000E-02 
   4.80331000E+00    9.19999000E-01   2.37594000E-01 
   1.45933000E+00   -3.03068000E-03   8.15854000E-01 
SP   1    1.000000
   4.83456000E-01    1.00000000E+00   1.00000000E+00 
SP   1    1.000000
   1.45585000E-01    1.00000000E+00   1.00000000E+00 
SP   1    1.000000
   4.38000000E-02    1.00000000E+00   1.00000000E+00 
D    1    1.000000
   6.26000000E-01    1.00000000E+00 

8    0
S    6    1.000000
   8.58850000E+03    1.89515000E-03 
   1.29723000E+03    1.43859000E-02 
   2.99296000E+02    7.07320000E-02 
   8.73771000E+01    2.40001000E-01 
   2.56789000E+01    5.94797000E-01 
   3.74004000E+00    2.80802000E-01 
SP   3    1.000000
   4.21175000E+01    1.13889000E-01   3.65114000E-02 
   9.62837000E+00    9.20811000E-01   2.37153000E-01 
   2.85332000E+00   -3.27447000E-03   8.19702000E-01 
SP   1    1.000000
   9.05661000E-01    1.00000000E+00   1.00000000E+00 
SP   1    1.000000
   2.55611000E-01    1.00000000E+00   1.00000000E+00 
SP   1    1.000000
   8.45000000E-02    1.00000000E+00   1.00000000E+00 
D    1    1.000000
   1.29200000E+00    1.00000000E+00 

9    0
S    6    1.000000
   6.29348000E+03    1.96979000E-03 
   9.49044000E+02    1.49613000E-02 
   2.18776000E+02    7.35006000E-02 
   6.36916000E+01    2.48937000E-01 
   1.88282000E+01    6.02460000E-01 
   2.72023000E+00    2.56202000E-01 
SP   3    1.000000
   3.06331000E+01    1.11906000E-01   3.83119000E-02 
   7.02614000E+00    9.21666000E-01   2.37403000E-01 
   2.11205000E+00   -2.56919000E-03   8.17592000E-01 
SP   1    1.000000
   6.84009000E-01    1.00000000E+00   1.00000000E+00 
SP   1    1.000000
   2.00878000E-01    1.00000000E+00   1.00000000E+00 
SP   1    1.000000
   6.39000000E-02    1.00000000E+00   1.00000000E+00 
D    1    1.000000
   9.13000000E-01    1.00000000E+00 

10    0
S    6    1.000000
   6.29348000E+03    1.96979000E-03 
   9.49044000E+02    1.49613000E-02 
   2.18776000E+02    7.35006000E-02 
   6.36916000E+01    2.48937000E-01 
   1.88282000E+01    6.02460000E-01 
   2.72023000E+00    2.56202000E-01 
SP   3    1.000000
   3.06331000E+01    1.11906000E-01   3.83119000E-02 
   7.02614000E+00    9.21666000E-01   2.37403000E-01 
   2.11205000E+00   -2.56919000E-03   8.17592000E-01 
SP   1    1.000000
   6.84009000E-01    1.00000000E+00   1.00000000E+00 
SP   1    1.000000
   2.00878000E-01    1.00000000E+00   1.00000000E+00 
SP   1    1.000000
   6.39000000E-02    1.00000000E+00   1.00000000E+00 
D    1    1.000000
   9.13000000E-01    1.00000000E+00 

11    0
S    6    1.000000
   4.56324000E+03    1.96665000E-03 
   6.82024000E+02    1.52306000E-02 
   1.54973000E+02    7.61269000E-02 
   4.44553000E+01    2.60801000E-01 
   1.30290000E+01    6.16462000E-01 
   1.82773000E+00    2.21006000E-01 
SP   3    1.000000
   2.09642000E+01    1.14660000E-01   4.02487000E-02 
   4.80331000E+00    9.19999000E-01   2.37594000E-01 
   1.45933000E+00   -3.03068000E-03   8.15854000E-01 
SP   1    1.000000
   4.83456000E-01    1.00000000E+00   1.00000000E+00 
SP   1    1.000000
   1.45585000E-01    1.00000000E+00   1.00000000E+00 
SP   1    1.000000
   4.38000000E-02    1.00000000E+00   1.00000000E+00 
D    1    1.000000
   6.26000000E-01    1.00000000E+00 

12    0
S    3    1.000000
   3.38650000E+01    2.54938000E-02 
   5.09479000E+00    1.90373000E-01 
   1.15879000E+00    8.52161000E-01 
S    1    1.000000
   3.25840000E-01    1.00000000E+00 
S    1    1.000000
   1.02741000E-01    1.00000000E+00 
S    1    1.000000
   3.60000000E-02    1.00000000E+00 
P    1    1.000000
   7.50000000E-01    1.00000000E+00 

[MO]
Sym=X
Ene= -0.064326
Spin=Alpha
Occup=1
     1    1.323899193560e-05
     2    2.214209259302e-05
     3    1.526870069707e-05
     4    2.684031294298e-05
     5    5.364817886782e-16
     6   -6.624392578679e-05
     7    6.893699636059e-06
     8    4.264692950702e-05
     9   -9.177374265522e-16
    10   -7.658387613708e-04
    11    2.812568714540e-05
    12   -1.219069667599e-04
    13    5.652435184232e-15
    14   -3.691735430507e-03
    15    8.570331549289e-04
    16   -3.482923085308e-04
    17   -2.255850688669e-14
    18   -2.753175360211e-06
    19    8.701439659449e-16
    20    9.415541487495e-16
    21   -7.856838286419e-06
    22    2.661388993635e-06
    23   -4.576319094953e-06
    24   -1.530152555754e-05
    25   -7.333829725491e-04
    26   -1.446357389026e-03
    27    1.030601109842e-05
    28    9.716075524791e-06
    29   -6.398718676430e-16
    30   -4.811631362625e-07
    31    2.585146758884e-05
    32    1.649552236008e-04
    33    1.520689281375e-03
    34    1.383177509606e-05
    35   -9.655999975319e-06
    36    9.232358724475e-16
    37    2.575246744487e-06
    38    7.721916390204e-05
    39   -7.351553149261e-05
    40    6.871033531934e-05
    41   -1.215014692610e-05
    42   -8.485429384834e-06
    43    4.411082192923e-16
    44    6.261549308369e-06
    45    1.397978750312e-05
    46    2.553379957667e-06
    47    1.662944274599e-05
    48   -9.556870022509e-16
    49   -4.580876650252e-05
    50   -3.690439529809e-05
    51    2.740155932188e-05
    52    2.199260085870e-15
    53   -3.774163373413e-04
    54   -1.215231849303e-04
    55   -2.300279289047e-05
    56   -2.039538628562e-15
    57   -2.951632910398e-04
    58   -7.862585841407e-05
    59   -4.567148064775e-04
    60   -9.391681013111e-15
    61   -5.333680313543e-06
    62   -3.361786732523e-16
    63    1.361262465962e-15
    64   -4.053136676612e-06
    65    9.563743796692e-06
    66    9.446218003240e-06
    67    3.076322350106e-06
    68   -1.148441909699e-05
    69   -1.641641060661e-05
    70    2.643460382297e-16
    71    2.943153486343e-05
    72   -2.162634333494e-05
    73   -2.447822646159e-05
    74    2.571339627227e-16
    75    1.200211306258e-04
    76    1.186389725710e-05
    77   -3.548762926379e-05
    78   -2.307083094219e-15
    79   -1.938164524663e-04
    80   -2.014971364041e-04
    81    5.855672561759e-05
    82    2.846492638810e-15
    83   -1.058559258254e-06
    84   -3.376127148245e-16
    85    2.109208295191e-16
    86    6.246629225511e-07
    87   -1.509421857315e-06
    88    1.918505381139e-06
    89   -8.171959881399e-05
    90    5.414419755031e-05
    91    3.570616686333e-05
    92   -1.052587502033e-15
    93    3.252641040163e-04
    94    3.405501620013e-04
    95    1.980003819584e-04
    96    1.644134908816e-15
    97   -1.145763086392e-04
    98    4.793827035241e-04
    99    4.097154919104e-04
   100    2.813573557965e-16
   101   -4.120030255738e-03
   102   -9.122745680412e-05
   103    8.177943151968e-04
   104    8.890453469138e-16
   105   -4.964536474544e-05
   106    9.447795495501e-16
   107   -6.701628455348e-16
   108    8.572162111091e-05
   109    1.950308332244e-04
   110    5.514857735104e-01
   111    4.716834256116e-01
   112   -1.540533633141e-03
   113   -9.167076298153e-04
   114    1.658108557836e-15
   115    5.498922392012e-03
   116    6.023997086992e-04
   117    3.775447188146e-04
   118   -2.547392039042e-15
   119   -1.355949560779e-03
   120   -1.412855106197e-04
   121   -6.402912277308e-05
   122    3.426596336689e-15
   123    1.459257764598e-03
   124   -1.142483860386e-04
   125   -8.354554811146e-05
   126   -5.922839778677e-15
   127   -1.183954059884e-04
   128    8.884228984714e-16
   129    9.611560881936e-16
   130   -3.715973860306e-05
   131   -7.531388943408e-05
   132   -1.752257062045e-06
   133   -8.623827569130e-07
   134   -3.649310560162e-05
   135    4.763759491681e-06
   136    6.377203772492e-16
   137   -2.550041038696e-05
   138   -9.463101461173e-06
   139    7.287062113495e-06
   140   -4.748457680482e-16
   141    3.408575724267e-04
   142   -1.565181377972e-04
   143   -2.658650307565e-04
   144    3.062746757278e-16
   145    4.969526055845e-04
   146   -8.788387546364e-04
   147    7.315945361229e-05
   148    2.227885924312e-15
   149   -9.202197660896e-06
   150    6.098273450569e-16
   151   -6.831307942920e-16
   152    2.103578027275e-05
   153   -1.543095156478e-05
   154   -2.000732671829e-05
   155   -3.369484972599e-05
   156   -3.428800611270e-05
   157   -2.097777488711e-05
   158   -1.233794496480e-15
   159    9.556472682797e-05
   160   -5.362902625585e-05
   161   -3.371149223513e-05
   162    2.847402327537e-15
   163    4.835986853841e-04
   164   -4.292245462678e-06
   165   -5.115702631748e-05
   166   -7.100102176502e-15
   167    1.094826477947e-03
   168   -7.823714497847e-04
   169   -5.239850267403e-04
   170    1.870147729977e-14
   171   -4.618198302517e-07
   172   -1.720241584044e-15
   173    1.324688437371e-16
   174    3.330387912282e-06
   175   -1.216241158339e-06
   176    1.654030997042e-05
   177    2.879531658058e-05
   178   -5.037636677804e-05
   179    7.540550215121e-06
   180    5.769066540484e-16
   181   -1.081140956025e-04
   182   -6.344656656496e-05
   183    1.110114975686e-04
   184   -6.061119398292e-16
   185    2.570891253859e-04
   186   -6.997105232092e-04
   187    1.923930144040e-04
   188   -4.458932988696e-15
   189    3.120977027162e-03
   190   -2.259293266745e-03
   191    1.940953325960e-03
   192    1.506552090667e-14
   193   -3.517376426845e-06
   194    9.591498078352e-16
   195    9.822274277526e-16
   196   -3.129381151353e-05
   197    1.403382858975e-05
   198   -1.267601963888e-05
   199    1.139209511221e-04
   200    5.896322738413e-04
   201    3.200728682857e-03
   202   -9.794453310505e-06
   203   -1.762683025740e-06
   204   -7.761506348652e-16
Sym=X
Ene= 0.064326
Spin=Alpha
Occup=0
     1   -1.068054310160e-15
     2   -1.498569610597e-15
     3   -5.393245690148e-15
     4   -4.376408700581e-15
     5    8.261586262919e-02
     6    9.093558594585e-15
     7    7.673159321690e-15
     8   -1.943031423846e-14
     9    1.377508760670e-01
    10   -1.957555801928e-13
    11    3.378703171565e-14
    12   -1.425403538860e-13
    13    1.467465734906e-01
    14   -3.929368368761e-12
    15   -6.970834901003e-13
    16   -9.979238725644e-13
    17    1.692207770975e-02
    18   -5.545026564087e-16
    19    3.633447382752e-02
    20    1.200157822219e-03
    21    8.645452514440e-16
    22    4.813556489389e-15
    23    2.973812263885e-15
    24    8.961854926582e-14
    25    1.615786755265e-13
    26    1.478402667889e-13
    27    5.030748561037e-15
    28    6.943370161958e-18
    29   -1.363082882047e-02
    30    2.085064644636e-15
    31   -4.685600160502e-14
    32    1.450556831025e-14
    33   -2.598379056568e-13
    34   -2.288975956726e-15
    35   -2.228870057713e-15
    36    6.177365390297e-03
    37   -4.224621972365e-15
    38   -5.823199132366e-14
    39    2.318853459322e-14
    40   -2.971910083655e-13
    41   -1.798099713114e-15
    42    1.197628618871e-15
    43    7.291138194448e-05
    44   -3.281382734726e-16
    45   -7.633725631341e-16
    46   -1.681586566265e-15
    47    1.141684730909e-15
    48   -1.336970918849e-02
    49    1.289774848158e-14
    50    4.890415278055e-15
    51    6.829720016186e-15
    52   -2.715633960622e-02
    53   -4.752739009757e-14
    54   -6.331755217575e-14
    55   -9.223036908609e-14
    56    7.993444398439e-03
    57    7.841574050854e-13
    58    2.622910355655e-13
    59    5.338377452884e-14
    60    2.679211792349e-02
    61    2.927122659829e-15
    62   -1.975278121071e-02
    63    3.513069640770e-02
    64    5.506227921797e-15
    65    5.944317850721e-15
    66   -2.385789002730e-16
    67    1.159220320432e-15
    68    5.213301430005e-16
    69    3.467478475909e-15
    70    9.094487357838e-02
    71   -1.781200531538e-15
    72   -6.468159320742e-15
    73   -8.823187897421e-15
    74    1.373698798601e-01
    75   -8.837149591596e-15
    76    2.776949299783e-14
    77    5.368233054504e-14
    78    1.405421178099e-01
    79    2.796315749558e-14
    80   -2.423504650973e-14
    81   -9.383546762225e-14
    82    2.712054774620e-02
    83   -4.483275387309e-16
    84    4.947750394613e-03
    85   -1.577780822658e-03
    86    8.150275117350e-16
    87   -1.543333269560e-15
    88    4.150325693216e-16
    89   -1.092630645039e-15
    90   -3.752367258398e-15
    91    3.297699089770e-15
    92    1.920031076139e-02
    93   -1.060114022841e-14
    94   -1.985827792211e-15
    95    1.006495819517e-15
    96    3.698150283729e-02
    97    2.376271645696e-13
    98   -3.281293696149e-14
    99   -7.603239429099e-14
   100    1.933680423396e-02
   101   -2.752253758863e-12
   102   -2.092940198523e-13
   103    8.957228306984e-13
   104   -3.225930942307e-02
   105   -5.438765796079e-15
   106   -1.615709193488e-02
   107   -3.221520974901e-02
   108    5.663048956134e-15
   109    5.003318621080e-16
   110   -1.399854122964e-16
   111    1.387452329051e-16
   112    6.458064646815e-15
   113   -7.855657809706e-15
   114   -1.347432063507e-01
   115    1.038629906546e-15
   116    8.158913999233e-15
   117   -8.717716452993e-15
   118   -1.683073866537e-01
   119   -1.231543572296e-14
   120   -2.987588546736e-14
   121    5.141143940584e-14
   122   -1.327796957479e-01
   123    8.259270130804e-14
   124    1.247211922881e-13
   125   -2.591213678500e-14
   126   -2.909890525549e-02
   127    5.272067722854e-16
   128    4.612600079758e-03
   129    1.483431775564e-03
   130   -4.195862876635e-16
   131   -1.308406639695e-15
   132   -2.752782787651e-16
   133   -1.030822280464e-15
   134   -2.536622436150e-15
   135   -3.633430060370e-15
   136   -4.252002907393e-03
   137    4.053839651538e-15
   138    3.278471056331e-15
   139   -2.478263582769e-14
   140   -5.859343033703e-03
   141    8.075181085121e-14
   142   -2.710242111493e-14
   143    1.601720582359e-13
   144   -1.598154311264e-02
   145   -7.049435107422e-13
   146    6.496468524790e-14
   147    1.239013824632e-13
   148    4.951310967884e-03
   149   -2.903914304245e-15
   150    1.413609920171e-03
   151   -2.991020116777e-04
   152    8.035253267945e-16
   153    2.823026790243e-16
   154   -4.800829846959e-16
   155    5.556435696816e-16
   156   -2.996653877156e-15
   157   -2.968278540976e-15
   158   -1.548422756421e-01
   159    1.171820463359e-15
   160   -2.474281594126e-14
   161   -3.422813393475e-15
   162   -2.441920962634e-01
   163   -5.858535490220e-14
   164    2.236723149284e-13
   165    1.964390871970e-14
   166   -2.979475726570e-01
   167    5.191625826165e-13
   168    3.855993799413e-13
   169    1.203975842029e-13
   170   -9.219163368575e-02
   171    2.522130691479e-15
   172    2.942635826370e-03
   173   -6.832881256099e-03
   174   -3.992633128774e-15
   175   -2.692621004575e-15
   176   -1.566622707237e-15
   177   -6.189694358006e-16
   178   -2.092641288765e-15
   179   -5.469240825377e-16
   180    1.534749898859e-01
   181    1.240006236095e-14
   182   -1.648385115701e-14
   183   -8.464011533575e-15
   184    2.547259894426e-01
   185   -5.915401680768e-14
   186    2.701895206846e-15
   187   -2.386297076536e-14
   188    2.552575318020e-01
   189    6.085030459670e-12
   190   -7.119300638488e-13
   191    7.067368410372e-13
   192    5.438612747657e-02
   193    8.335582287890e-15
   194   -1.208421768727e-02
   195    4.619529788574e-03
   196   -7.999778340136e-16
   197    6.344037456873e-17
   198   -5.287564421256e-15
   199    3.939613184943e-14
   200   -1.684295120977e-13
   201    3.041072338635e-13
   202   -6.732612740552e-15
   203    1.228941946806e-15
   204    1.147614621176e-02
[5D]
