[Molden Format]
[Atoms] (Angs)
  C      1    6     -0.00714236     -1.70213747     -0.00000000
  H      2    1     -2.06882847     -1.44022412      0.00000000
  H      3    1     -0.12337987     -2.77567521      0.00000000
  H      4    1      0.04651892      1.98813947     -0.00000000
  C      5    6     -1.21953563      0.40211669      0.00000000
  O      6    8     -2.25921553      1.03043814      0.00000000
  C      7    6      1.28797806      0.34644937     -0.00000000
  O      8    8      2.31273661      1.00537216     -0.00000000
  N      9    7      0.03446295      0.97739857     -0.00000000
  N     10    7     -1.17287765     -0.98229824      0.00000000
  C     11    6      1.20107039     -1.10433419     -0.00000000
  H     12    1      2.11220096     -1.67699125     -0.00000000
[GTO]
1    0
S    6    1.000000
   4.56324000E+03    1.96665000E-03 
   6.82024000E+02    1.52306000E-02 
   1.54973000E+02    7.61269000E-02 
   4.44553000E+01    2.60801000E-01 
   1.30290000E+01    6.16462000E-01 
   1.82773000E+00    2.21006000E-01 
SP   3    1.000000
   2.09642000E+01    1.14660000E-01   4.02487000E-02 
   4.80331000E+00    9.19999000E-01   2.37594000E-01 
   1.45933000E+00   -3.03068000E-03   8.15854000E-01 
SP   1    1.000000
   4.83456000E-01    1.00000000E+00   1.00000000E+00 
SP   1    1.000000
   1.45585000E-01    1.00000000E+00   1.00000000E+00 
SP   1    1.000000
   4.38000000E-02    1.00000000E+00   1.00000000E+00 
D    1    1.000000
   6.26000000E-01    1.00000000E+00 

2    0
S    3    1.000000
   3.38650000E+01    2.54938000E-02 
   5.09479000E+00    1.90373000E-01 
   1.15879000E+00    8.52161000E-01 
S    1    1.000000
   3.25840000E-01    1.00000000E+00 
S    1    1.000000
   1.02741000E-01    1.00000000E+00 
S    1    1.000000
   3.60000000E-02    1.00000000E+00 
P    1    1.000000
   7.50000000E-01    1.00000000E+00 

3    0
S    3    1.000000
   3.38650000E+01    2.54938000E-02 
   5.09479000E+00    1.90373000E-01 
   1.15879000E+00    8.52161000E-01 
S    1    1.000000
   3.25840000E-01    1.00000000E+00 
S    1    1.000000
   1.02741000E-01    1.00000000E+00 
S    1    1.000000
   3.60000000E-02    1.00000000E+00 
P    1    1.000000
   7.50000000E-01    1.00000000E+00 

4    0
S    3    1.000000
   3.38650000E+01    2.54938000E-02 
   5.09479000E+00    1.90373000E-01 
   1.15879000E+00    8.52161000E-01 
S    1    1.000000
   3.25840000E-01    1.00000000E+00 
S    1    1.000000
   1.02741000E-01    1.00000000E+00 
S    1    1.000000
   3.60000000E-02    1.00000000E+00 
P    1    1.000000
   7.50000000E-01    1.00000000E+00 

5    0
S    6    1.000000
   4.56324000E+03    1.96665000E-03 
   6.82024000E+02    1.52306000E-02 
   1.54973000E+02    7.61269000E-02 
   4.44553000E+01    2.60801000E-01 
   1.30290000E+01    6.16462000E-01 
   1.82773000E+00    2.21006000E-01 
SP   3    1.000000
   2.09642000E+01    1.14660000E-01   4.02487000E-02 
   4.80331000E+00    9.19999000E-01   2.37594000E-01 
   1.45933000E+00   -3.03068000E-03   8.15854000E-01 
SP   1    1.000000
   4.83456000E-01    1.00000000E+00   1.00000000E+00 
SP   1    1.000000
   1.45585000E-01    1.00000000E+00   1.00000000E+00 
SP   1    1.000000
   4.38000000E-02    1.00000000E+00   1.00000000E+00 
D    1    1.000000
   6.26000000E-01    1.00000000E+00 

6    0
S    6    1.000000
   8.58850000E+03    1.89515000E-03 
   1.29723000E+03    1.43859000E-02 
   2.99296000E+02    7.07320000E-02 
   8.73771000E+01    2.40001000E-01 
   2.56789000E+01    5.94797000E-01 
   3.74004000E+00    2.80802000E-01 
SP   3    1.000000
   4.21175000E+01    1.13889000E-01   3.65114000E-02 
   9.62837000E+00    9.20811000E-01   2.37153000E-01 
   2.85332000E+00   -3.27447000E-03   8.19702000E-01 
SP   1    1.000000
   9.05661000E-01    1.00000000E+00   1.00000000E+00 
SP   1    1.000000
   2.55611000E-01    1.00000000E+00   1.00000000E+00 
SP   1    1.000000
   8.45000000E-02    1.00000000E+00   1.00000000E+00 
D    1    1.000000
   1.29200000E+00    1.00000000E+00 

7    0
S    6    1.000000
   4.56324000E+03    1.96665000E-03 
   6.82024000E+02    1.52306000E-02 
   1.54973000E+02    7.61269000E-02 
   4.44553000E+01    2.60801000E-01 
   1.30290000E+01    6.16462000E-01 
   1.82773000E+00    2.21006000E-01 
SP   3    1.000000
   2.09642000E+01    1.14660000E-01   4.02487000E-02 
   4.80331000E+00    9.19999000E-01   2.37594000E-01 
   1.45933000E+00   -3.03068000E-03   8.15854000E-01 
SP   1    1.000000
   4.83456000E-01    1.00000000E+00   1.00000000E+00 
SP   1    1.000000
   1.45585000E-01    1.00000000E+00   1.00000000E+00 
SP   1    1.000000
   4.38000000E-02    1.00000000E+00   1.00000000E+00 
D    1    1.000000
   6.26000000E-01    1.00000000E+00 

8    0
S    6    1.000000
   8.58850000E+03    1.89515000E-03 
   1.29723000E+03    1.43859000E-02 
   2.99296000E+02    7.07320000E-02 
   8.73771000E+01    2.40001000E-01 
   2.56789000E+01    5.94797000E-01 
   3.74004000E+00    2.80802000E-01 
SP   3    1.000000
   4.21175000E+01    1.13889000E-01   3.65114000E-02 
   9.62837000E+00    9.20811000E-01   2.37153000E-01 
   2.85332000E+00   -3.27447000E-03   8.19702000E-01 
SP   1    1.000000
   9.05661000E-01    1.00000000E+00   1.00000000E+00 
SP   1    1.000000
   2.55611000E-01    1.00000000E+00   1.00000000E+00 
SP   1    1.000000
   8.45000000E-02    1.00000000E+00   1.00000000E+00 
D    1    1.000000
   1.29200000E+00    1.00000000E+00 

9    0
S    6    1.000000
   6.29348000E+03    1.96979000E-03 
   9.49044000E+02    1.49613000E-02 
   2.18776000E+02    7.35006000E-02 
   6.36916000E+01    2.48937000E-01 
   1.88282000E+01    6.02460000E-01 
   2.72023000E+00    2.56202000E-01 
SP   3    1.000000
   3.06331000E+01    1.11906000E-01   3.83119000E-02 
   7.02614000E+00    9.21666000E-01   2.37403000E-01 
   2.11205000E+00   -2.56919000E-03   8.17592000E-01 
SP   1    1.000000
   6.84009000E-01    1.00000000E+00   1.00000000E+00 
SP   1    1.000000
   2.00878000E-01    1.00000000E+00   1.00000000E+00 
SP   1    1.000000
   6.39000000E-02    1.00000000E+00   1.00000000E+00 
D    1    1.000000
   9.13000000E-01    1.00000000E+00 

10    0
S    6    1.000000
   6.29348000E+03    1.96979000E-03 
   9.49044000E+02    1.49613000E-02 
   2.18776000E+02    7.35006000E-02 
   6.36916000E+01    2.48937000E-01 
   1.88282000E+01    6.02460000E-01 
   2.72023000E+00    2.56202000E-01 
SP   3    1.000000
   3.06331000E+01    1.11906000E-01   3.83119000E-02 
   7.02614000E+00    9.21666000E-01   2.37403000E-01 
   2.11205000E+00   -2.56919000E-03   8.17592000E-01 
SP   1    1.000000
   6.84009000E-01    1.00000000E+00   1.00000000E+00 
SP   1    1.000000
   2.00878000E-01    1.00000000E+00   1.00000000E+00 
SP   1    1.000000
   6.39000000E-02    1.00000000E+00   1.00000000E+00 
D    1    1.000000
   9.13000000E-01    1.00000000E+00 

11    0
S    6    1.000000
   4.56324000E+03    1.96665000E-03 
   6.82024000E+02    1.52306000E-02 
   1.54973000E+02    7.61269000E-02 
   4.44553000E+01    2.60801000E-01 
   1.30290000E+01    6.16462000E-01 
   1.82773000E+00    2.21006000E-01 
SP   3    1.000000
   2.09642000E+01    1.14660000E-01   4.02487000E-02 
   4.80331000E+00    9.19999000E-01   2.37594000E-01 
   1.45933000E+00   -3.03068000E-03   8.15854000E-01 
SP   1    1.000000
   4.83456000E-01    1.00000000E+00   1.00000000E+00 
SP   1    1.000000
   1.45585000E-01    1.00000000E+00   1.00000000E+00 
SP   1    1.000000
   4.38000000E-02    1.00000000E+00   1.00000000E+00 
D    1    1.000000
   6.26000000E-01    1.00000000E+00 

12    0
S    3    1.000000
   3.38650000E+01    2.54938000E-02 
   5.09479000E+00    1.90373000E-01 
   1.15879000E+00    8.52161000E-01 
S    1    1.000000
   3.25840000E-01    1.00000000E+00 
S    1    1.000000
   1.02741000E-01    1.00000000E+00 
S    1    1.000000
   3.60000000E-02    1.00000000E+00 
P    1    1.000000
   7.50000000E-01    1.00000000E+00 

[MO]
Sym=X
Ene= -0.140990
Spin=Alpha
Occup=1
     1    1.173678956725e-05
     2    1.958831241915e-05
     3    2.104285023949e-07
     4    4.100460394829e-05
     5    5.381034887137e-16
     6   -6.080390157987e-05
     7   -1.051747919323e-05
     8    6.569608478563e-05
     9   -9.068457828654e-16
    10   -8.177282221204e-04
    11   -1.552879287012e-04
    12   -1.113922745934e-04
    13    5.642630425459e-15
    14   -2.637474666449e-04
    15    2.164360040471e-04
    16    2.626210509162e-04
    17   -2.143918029310e-14
    18    6.507186297182e-06
    19    8.749927658900e-16
    20    9.333697555005e-16
    21   -1.894664951988e-05
    22    7.510106228038e-06
    23    1.168746680149e-05
    24    6.083632841485e-05
    25    2.567462762198e-04
    26    6.749326265508e-04
    27   -1.371247405839e-05
    28   -6.890160840532e-06
    29   -6.481850554730e-16
    30   -3.338970263019e-06
    31    1.738230186976e-05
    32    1.165402041618e-04
    33    9.304868374907e-04
    34    1.687579280509e-06
    35   -9.452921998369e-06
    36    9.280739526493e-16
    37    7.343564554480e-06
    38    8.415107227852e-05
    39    1.414089148114e-04
    40    1.015710506476e-04
    41   -1.028399697700e-05
    42   -3.765965340018e-06
    43    4.394414711695e-16
    44   -1.262224287165e-07
    45    3.197754261676e-06
    46    8.870636731098e-06
    47    9.138413214901e-07
    48   -9.099777428762e-16
    49   -3.213606130052e-05
    50   -3.150173481325e-05
    51    1.501629890902e-06
    52    2.276019484244e-15
    53   -2.195291376644e-04
    54   -9.727398079152e-05
    55   -7.805872682914e-06
    56   -1.855686004497e-15
    57   -2.784983993090e-04
    58    8.867655657299e-05
    59   -2.232872410081e-05
    60   -1.014323318974e-14
    61    1.045263218101e-05
    62   -3.309231812152e-16
    63    1.365924265897e-15
    64   -6.497127796206e-06
    65   -1.018217191507e-05
    66   -1.276756600960e-05
    67   -6.871843933213e-06
    68    8.116294229527e-06
    69    2.235064492641e-06
    70    2.315990070730e-16
    71   -2.870584687125e-05
    72    5.506233870920e-06
    73    4.550661032287e-06
    74    2.181508741129e-16
    75   -3.576812879292e-06
    76    2.500907566799e-05
    77    8.908251087957e-06
    78   -2.438621717099e-15
    79   -2.101390020484e-04
    80   -1.054211246217e-04
    81   -3.705660007706e-06
    82    3.179708092872e-15
    83    1.413465450442e-06
    84   -3.398806009005e-16
    85    2.073587539714e-16
    86    2.048789819931e-07
    87    1.311800953737e-06
    88    9.169512161991e-06
    89   -6.884914793403e-05
    90    5.796492367301e-05
    91    5.595152923836e-05
    92   -1.059825033432e-15
    93    2.833338259947e-04
    94    3.460849232899e-04
    95    2.284610045777e-04
    96    1.623351379724e-15
    97   -2.220295121858e-04
    98    5.879474853255e-04
    99    5.085020354256e-04
   100    2.835220589923e-16
   101   -1.843825082874e-03
   102   -5.455308947961e-04
   103    4.512296472596e-04
   104    1.861392946963e-15
   105   -5.002029480075e-05
   106    9.492043313113e-16
   107   -6.672102507954e-16
   108    8.754530529264e-05
   109    1.878310464562e-04
   110    5.514854157852e-01
   111    4.716825975579e-01
   112   -1.530633389784e-03
   113   -9.282267098768e-04
   114    1.683698188125e-15
   115    5.502966069091e-03
   116    6.153624358985e-04
   117    3.599102366367e-04
   118   -2.532214136070e-15
   119   -1.363643372338e-03
   120   -1.128336561215e-04
   121   -8.237948833663e-05
   122    3.566237977337e-15
   123    1.194052710153e-03
   124   -2.144830473313e-05
   125   -1.690506283112e-05
   126   -6.374080093159e-15
   127   -1.188692630552e-04
   128    8.897858886938e-16
   129    9.544410293649e-16
   130   -3.729032802242e-05
   131   -7.540411333617e-05
   132    7.892081913672e-06
   133    1.592439695650e-05
   134   -3.529992448909e-06
   135    3.803799037821e-06
   136    6.182762818481e-16
   137   -8.167917104050e-05
   138    4.018831528991e-05
   139    7.985531529530e-06
   140   -4.902152212597e-16
   141    2.428340672737e-04
   142   -4.749908499932e-05
   143   -2.735367967687e-04
   144    1.722994598046e-16
   145   -4.639429783195e-04
   146   -5.748137202594e-04
   147   -1.061398155304e-04
   148    2.509114091637e-15
   149   -7.476728035243e-06
   150    6.005572290993e-16
   151   -6.833876347003e-16
   152    1.940869519081e-05
   153   -1.094091255495e-05
   154    1.648022428439e-05
   155    2.917306583578e-05
   156    2.910322759149e-05
   157    1.805261383918e-05
   158   -1.233808371868e-15
   159   -1.013635224703e-04
   160    4.345647516200e-05
   161    2.497038903999e-05
   162    2.837397453328e-15
   163   -1.138138450343e-04
   164    1.378091390588e-04
   165    5.310681464650e-05
   166   -7.077780743657e-15
   167   -3.913861646703e-04
   168    1.074592498932e-04
   169   -3.750401092823e-05
   170    1.824877024637e-14
   171    4.712534554221e-06
   172   -1.720135568475e-15
   173    1.389875579702e-16
   174    6.348037196016e-06
   175    6.410331719859e-06
   176    8.526082792065e-06
   177    1.495580453015e-05
   178   -1.312098690956e-05
   179   -8.574963840091e-06
   180    5.977776030988e-16
   181   -7.038215604228e-05
   182   -1.479642500635e-05
   183    8.269078995248e-05
   184   -6.009102596639e-16
   185    5.992967172058e-04
   186   -6.146223446215e-04
   187    1.588711002530e-04
   188   -4.320841636416e-15
   189    9.073755833599e-04
   190   -3.296665874804e-05
   191    8.542383213837e-04
   192    1.366556555569e-14
   193   -2.436898361328e-06
   194    9.616035800870e-16
   195    9.779482218765e-16
   196   -2.200141731459e-05
   197    1.527127840347e-05
   198    1.954914092539e-06
   199    1.504232068641e-04
   200    2.642485097912e-04
   201    6.270373266610e-04
   202   -1.528882054698e-05
   203    8.390162322001e-06
   204   -7.756658377346e-16
Sym=X
Ene= 0.140990
Spin=Alpha
Occup=0
     1   -1.112489589308e-15
     2   -1.446936708255e-15
     3   -5.108254311261e-15
     4   -3.831548970624e-15
     5    7.631482645678e-02
     6    9.588031616447e-15
     7    7.777266254683e-15
     8   -1.721315522393e-14
     9    1.273369967688e-01
    10   -1.843519339193e-13
    11    2.868516076059e-14
    12   -1.450460417185e-13
    13    1.351714777031e-01
    14   -3.877047159157e-12
    15   -7.879406544174e-13
    16   -9.246660267294e-13
    17    2.646691502962e-02
    18   -1.086561857420e-15
    19    3.754791114099e-02
    20   -3.215978445506e-04
    21    5.691099104236e-16
    22    3.989240762789e-15
    23    3.120524064781e-15
    24    8.121997774509e-14
    25    1.732754146116e-13
    26    1.284699559857e-13
    27    4.459009371139e-15
    28    5.114191488782e-16
    29   -1.423665804629e-02
    30    1.973865348248e-15
    31   -4.625630635538e-14
    32    2.662326065103e-15
    33   -2.738466432534e-13
    34   -2.296801626173e-15
    35   -2.373280934989e-15
    36    5.802434628250e-03
    37   -4.874212824418e-15
    38   -4.415772611064e-14
    39   -2.282312256118e-14
    40   -2.586874568481e-13
    41   -1.624064145018e-15
    42   -1.675433868103e-16
    43   -5.987949393411e-04
    44   -2.974606121821e-16
    45   -6.835292239868e-16
    46   -1.954375577262e-15
    47    1.267159274603e-15
    48   -1.011284444236e-02
    49    1.276864021843e-14
    50    4.030519523324e-15
    51    6.280170926539e-15
    52   -2.132208063696e-02
    53   -5.499477668125e-14
    54   -7.442093379992e-14
    55   -6.614631460431e-14
    56    1.341238243178e-02
    57    6.371407370138e-13
    58    2.155435619775e-13
    59    5.872381103098e-14
    60    2.558899118586e-02
    61    2.681444887199e-15
    62   -2.339376313552e-02
    63    3.650604350212e-02
    64    5.087057333100e-15
    65    5.515279354474e-15
    66   -3.547509320121e-16
    67    9.629506243651e-16
    68    5.941213691763e-16
    69    3.205567322176e-15
    70    1.020542071652e-01
    71   -6.205277896483e-16
    72   -5.603066545482e-15
    73   -7.934466774476e-15
    74    1.543046843407e-01
    75   -1.254803654285e-14
    76    2.282074488836e-14
    77    4.930540754098e-14
    78    1.553888107245e-01
    79   -9.070242956022e-15
    80   -3.351242612244e-14
    81   -7.404634140957e-14
    82    3.315028232561e-02
    83   -6.635038735882e-16
    84    5.592309135252e-03
    85   -2.203732992821e-03
    86    7.533000030306e-16
    87   -1.583546124227e-15
    88    4.261022150105e-16
    89   -1.023749785122e-15
    90   -3.618816406335e-15
    91    3.021612426444e-15
    92    1.855023981039e-02
    93   -9.714929201875e-15
    94   -6.479929605516e-16
    95    9.911734040417e-16
    96    3.651769168576e-02
    97    2.093574058702e-13
    98   -2.130205630691e-14
    99   -6.157036171129e-14
   100    1.378457926550e-02
   101   -2.297918030437e-12
   102   -1.002460147451e-13
   103    7.305998699715e-13
   104   -2.986131349276e-02
   105   -5.627729776292e-15
   106   -1.291565114436e-02
   107   -3.140425184193e-02
   108    4.706002290751e-15
   109    9.724341419457e-16
   110   -1.679285519228e-16
   111    1.817633681595e-16
   112    6.342863582133e-15
   113   -6.873510269025e-15
   114   -1.226164861699e-01
   115    1.089998541656e-15
   116    8.234922875326e-15
   117   -8.089575025665e-15
   118   -1.532343920869e-01
   119   -1.635484495501e-14
   120   -2.456067384742e-14
   121    5.048448743631e-14
   122   -1.210097941016e-01
   123    5.440178417623e-14
   124    1.102927530247e-13
   125   -3.266638094840e-14
   126   -2.228006090443e-02
   127    6.942074791134e-16
   128    4.222687233034e-03
   129    1.407300952581e-03
   130   -4.527373981608e-16
   131   -1.539669118863e-15
   132   -4.032826430020e-16
   133   -1.297831951065e-15
   134   -2.572698923361e-15
   135   -3.068873019159e-15
   136   -1.319194225721e-02
   137    4.968260304623e-15
   138    2.385005464461e-15
   139   -2.247370883341e-14
   140   -1.989293034245e-02
   141    7.631942630402e-14
   142   -2.669637840841e-14
   143    1.359912011758e-13
   144   -3.062582198600e-02
   145   -5.350893983362e-13
   146    7.224116433786e-14
   147    1.567007216699e-13
   148   -2.837198759537e-05
   149   -2.443172065418e-15
   150    1.017396544343e-03
   151    8.546301064638e-06
   152    1.273482250345e-15
   153    4.406631864040e-16
   154   -5.898604393979e-16
   155    2.968588141433e-16
   156   -2.920466211365e-15
   157   -2.757614611727e-15
   158   -1.608039994004e-01
   159    1.647405280559e-15
   160   -2.330368924492e-14
   161   -4.054037500777e-15
   162   -2.531325462103e-01
   163   -4.180129998065e-14
   164    2.100947064411e-13
   165    2.701320014207e-14
   166   -3.057468592040e-01
   167    4.726782000021e-13
   168    3.755441232219e-13
   169    1.762558957459e-13
   170   -9.642462422496e-02
   171    2.343057226401e-15
   172    2.157969549573e-03
   173   -6.528687741074e-03
   174   -3.743181308915e-15
   175   -2.508434353842e-15
   176   -1.339682901977e-15
   177   -3.371185741670e-16
   178   -2.078011466264e-15
   179    9.392179093501e-17
   180    1.510178512963e-01
   181    1.214212810028e-14
   182   -1.682924637568e-14
   183   -7.834960263739e-15
   184    2.503303477437e-01
   185   -5.501327434689e-14
   186   -5.385757430327e-15
   187   -1.068293935994e-14
   188    2.602238544773e-01
   189    5.699436860450e-12
   190   -8.152116672523e-13
   191    4.692874016813e-13
   192    3.981647055037e-02
   193    7.986351539626e-15
   194   -1.020104265787e-02
   195    3.759141505006e-03
   196   -9.990241850919e-16
   197    3.472035366989e-16
   198   -5.207611273234e-15
   199    4.146320234905e-14
   200   -1.430198983293e-13
   201    2.898517498201e-13
   202   -6.978511043129e-15
   203    1.685245398416e-15
   204    1.218213735948e-02
[5D]
