[Molden Format]
[Atoms] (Angs)
  C      1    6     -0.00714236     -1.70213747     -0.00000000
  H      2    1     -2.06882847     -1.44022412      0.00000000
  H      3    1     -0.12337987     -2.77567521      0.00000000
  H      4    1      0.04651892      1.98813947     -0.00000000
  C      5    6     -1.21953563      0.40211669      0.00000000
  O      6    8     -2.25921553      1.03043814      0.00000000
  C      7    6      1.28797806      0.34644937     -0.00000000
  O      8    8      2.31273661      1.00537216     -0.00000000
  N      9    7      0.03446295      0.97739857     -0.00000000
  N     10    7     -1.17287765     -0.98229824      0.00000000
  C     11    6      1.20107039     -1.10433419     -0.00000000
  H     12    1      2.11220096     -1.67699125     -0.00000000
[GTO]
1    0
S    6    1.000000
   4.56324000E+03    1.96665000E-03 
   6.82024000E+02    1.52306000E-02 
   1.54973000E+02    7.61269000E-02 
   4.44553000E+01    2.60801000E-01 
   1.30290000E+01    6.16462000E-01 
   1.82773000E+00    2.21006000E-01 
SP   3    1.000000
   2.09642000E+01    1.14660000E-01   4.02487000E-02 
   4.80331000E+00    9.19999000E-01   2.37594000E-01 
   1.45933000E+00   -3.03068000E-03   8.15854000E-01 
SP   1    1.000000
   4.83456000E-01    1.00000000E+00   1.00000000E+00 
SP   1    1.000000
   1.45585000E-01    1.00000000E+00   1.00000000E+00 
SP   1    1.000000
   4.38000000E-02    1.00000000E+00   1.00000000E+00 
D    1    1.000000
   6.26000000E-01    1.00000000E+00 

2    0
S    3    1.000000
   3.38650000E+01    2.54938000E-02 
   5.09479000E+00    1.90373000E-01 
   1.15879000E+00    8.52161000E-01 
S    1    1.000000
   3.25840000E-01    1.00000000E+00 
S    1    1.000000
   1.02741000E-01    1.00000000E+00 
S    1    1.000000
   3.60000000E-02    1.00000000E+00 
P    1    1.000000
   7.50000000E-01    1.00000000E+00 

3    0
S    3    1.000000
   3.38650000E+01    2.54938000E-02 
   5.09479000E+00    1.90373000E-01 
   1.15879000E+00    8.52161000E-01 
S    1    1.000000
   3.25840000E-01    1.00000000E+00 
S    1    1.000000
   1.02741000E-01    1.00000000E+00 
S    1    1.000000
   3.60000000E-02    1.00000000E+00 
P    1    1.000000
   7.50000000E-01    1.00000000E+00 

4    0
S    3    1.000000
   3.38650000E+01    2.54938000E-02 
   5.09479000E+00    1.90373000E-01 
   1.15879000E+00    8.52161000E-01 
S    1    1.000000
   3.25840000E-01    1.00000000E+00 
S    1    1.000000
   1.02741000E-01    1.00000000E+00 
S    1    1.000000
   3.60000000E-02    1.00000000E+00 
P    1    1.000000
   7.50000000E-01    1.00000000E+00 

5    0
S    6    1.000000
   4.56324000E+03    1.96665000E-03 
   6.82024000E+02    1.52306000E-02 
   1.54973000E+02    7.61269000E-02 
   4.44553000E+01    2.60801000E-01 
   1.30290000E+01    6.16462000E-01 
   1.82773000E+00    2.21006000E-01 
SP   3    1.000000
   2.09642000E+01    1.14660000E-01   4.02487000E-02 
   4.80331000E+00    9.19999000E-01   2.37594000E-01 
   1.45933000E+00   -3.03068000E-03   8.15854000E-01 
SP   1    1.000000
   4.83456000E-01    1.00000000E+00   1.00000000E+00 
SP   1    1.000000
   1.45585000E-01    1.00000000E+00   1.00000000E+00 
SP   1    1.000000
   4.38000000E-02    1.00000000E+00   1.00000000E+00 
D    1    1.000000
   6.26000000E-01    1.00000000E+00 

6    0
S    6    1.000000
   8.58850000E+03    1.89515000E-03 
   1.29723000E+03    1.43859000E-02 
   2.99296000E+02    7.07320000E-02 
   8.73771000E+01    2.40001000E-01 
   2.56789000E+01    5.94797000E-01 
   3.74004000E+00    2.80802000E-01 
SP   3    1.000000
   4.21175000E+01    1.13889000E-01   3.65114000E-02 
   9.62837000E+00    9.20811000E-01   2.37153000E-01 
   2.85332000E+00   -3.27447000E-03   8.19702000E-01 
SP   1    1.000000
   9.05661000E-01    1.00000000E+00   1.00000000E+00 
SP   1    1.000000
   2.55611000E-01    1.00000000E+00   1.00000000E+00 
SP   1    1.000000
   8.45000000E-02    1.00000000E+00   1.00000000E+00 
D    1    1.000000
   1.29200000E+00    1.00000000E+00 

7    0
S    6    1.000000
   4.56324000E+03    1.96665000E-03 
   6.82024000E+02    1.52306000E-02 
   1.54973000E+02    7.61269000E-02 
   4.44553000E+01    2.60801000E-01 
   1.30290000E+01    6.16462000E-01 
   1.82773000E+00    2.21006000E-01 
SP   3    1.000000
   2.09642000E+01    1.14660000E-01   4.02487000E-02 
   4.80331000E+00    9.19999000E-01   2.37594000E-01 
   1.45933000E+00   -3.03068000E-03   8.15854000E-01 
SP   1    1.000000
   4.83456000E-01    1.00000000E+00   1.00000000E+00 
SP   1    1.000000
   1.45585000E-01    1.00000000E+00   1.00000000E+00 
SP   1    1.000000
   4.38000000E-02    1.00000000E+00   1.00000000E+00 
D    1    1.000000
   6.26000000E-01    1.00000000E+00 

8    0
S    6    1.000000
   8.58850000E+03    1.89515000E-03 
   1.29723000E+03    1.43859000E-02 
   2.99296000E+02    7.07320000E-02 
   8.73771000E+01    2.40001000E-01 
   2.56789000E+01    5.94797000E-01 
   3.74004000E+00    2.80802000E-01 
SP   3    1.000000
   4.21175000E+01    1.13889000E-01   3.65114000E-02 
   9.62837000E+00    9.20811000E-01   2.37153000E-01 
   2.85332000E+00   -3.27447000E-03   8.19702000E-01 
SP   1    1.000000
   9.05661000E-01    1.00000000E+00   1.00000000E+00 
SP   1    1.000000
   2.55611000E-01    1.00000000E+00   1.00000000E+00 
SP   1    1.000000
   8.45000000E-02    1.00000000E+00   1.00000000E+00 
D    1    1.000000
   1.29200000E+00    1.00000000E+00 

9    0
S    6    1.000000
   6.29348000E+03    1.96979000E-03 
   9.49044000E+02    1.49613000E-02 
   2.18776000E+02    7.35006000E-02 
   6.36916000E+01    2.48937000E-01 
   1.88282000E+01    6.02460000E-01 
   2.72023000E+00    2.56202000E-01 
SP   3    1.000000
   3.06331000E+01    1.11906000E-01   3.83119000E-02 
   7.02614000E+00    9.21666000E-01   2.37403000E-01 
   2.11205000E+00   -2.56919000E-03   8.17592000E-01 
SP   1    1.000000
   6.84009000E-01    1.00000000E+00   1.00000000E+00 
SP   1    1.000000
   2.00878000E-01    1.00000000E+00   1.00000000E+00 
SP   1    1.000000
   6.39000000E-02    1.00000000E+00   1.00000000E+00 
D    1    1.000000
   9.13000000E-01    1.00000000E+00 

10    0
S    6    1.000000
   6.29348000E+03    1.96979000E-03 
   9.49044000E+02    1.49613000E-02 
   2.18776000E+02    7.35006000E-02 
   6.36916000E+01    2.48937000E-01 
   1.88282000E+01    6.02460000E-01 
   2.72023000E+00    2.56202000E-01 
SP   3    1.000000
   3.06331000E+01    1.11906000E-01   3.83119000E-02 
   7.02614000E+00    9.21666000E-01   2.37403000E-01 
   2.11205000E+00   -2.56919000E-03   8.17592000E-01 
SP   1    1.000000
   6.84009000E-01    1.00000000E+00   1.00000000E+00 
SP   1    1.000000
   2.00878000E-01    1.00000000E+00   1.00000000E+00 
SP   1    1.000000
   6.39000000E-02    1.00000000E+00   1.00000000E+00 
D    1    1.000000
   9.13000000E-01    1.00000000E+00 

11    0
S    6    1.000000
   4.56324000E+03    1.96665000E-03 
   6.82024000E+02    1.52306000E-02 
   1.54973000E+02    7.61269000E-02 
   4.44553000E+01    2.60801000E-01 
   1.30290000E+01    6.16462000E-01 
   1.82773000E+00    2.21006000E-01 
SP   3    1.000000
   2.09642000E+01    1.14660000E-01   4.02487000E-02 
   4.80331000E+00    9.19999000E-01   2.37594000E-01 
   1.45933000E+00   -3.03068000E-03   8.15854000E-01 
SP   1    1.000000
   4.83456000E-01    1.00000000E+00   1.00000000E+00 
SP   1    1.000000
   1.45585000E-01    1.00000000E+00   1.00000000E+00 
SP   1    1.000000
   4.38000000E-02    1.00000000E+00   1.00000000E+00 
D    1    1.000000
   6.26000000E-01    1.00000000E+00 

12    0
S    3    1.000000
   3.38650000E+01    2.54938000E-02 
   5.09479000E+00    1.90373000E-01 
   1.15879000E+00    8.52161000E-01 
S    1    1.000000
   3.25840000E-01    1.00000000E+00 
S    1    1.000000
   1.02741000E-01    1.00000000E+00 
S    1    1.000000
   3.60000000E-02    1.00000000E+00 
P    1    1.000000
   7.50000000E-01    1.00000000E+00 

[MO]
Sym=X
Ene= -0.087786
Spin=Alpha
Occup=1
     1   -2.524803264192e-05
     2   -4.521509309497e-05
     3    9.610398650830e-06
     4   -8.650055659513e-05
     5    5.155227957946e-16
     6    1.633233350283e-04
     7   -9.219303616099e-06
     8   -1.367223745465e-04
     9   -9.556984645171e-16
    10   -2.045804567787e-04
    11   -9.622791808338e-05
    12   -5.712793953200e-04
    13    5.607415622680e-15
    14    8.121955475940e-04
    15    5.239719550378e-04
    16   -2.474098655632e-03
    17   -2.276552691002e-14
    18   -1.091148079568e-05
    19    8.780993629272e-16
    20    9.396322679331e-16
    21    2.795894288732e-05
    22   -1.934346418568e-06
    23   -2.428163955427e-05
    24   -1.092876626660e-04
    25   -6.506855840637e-04
    26   -1.192544405970e-03
    27    1.830109776646e-05
    28    1.750375267035e-05
    29   -6.455240771120e-16
    30   -8.474073286422e-07
    31   -2.500146600819e-05
    32   -6.629367654367e-04
    33   -2.955915031612e-03
    34    1.439053858799e-05
    35    2.218463592965e-05
    36    9.176765324307e-16
    37   -9.009955014119e-06
    38    5.292213957304e-05
    39    2.575042422420e-05
    40    7.311497763227e-05
    41   -1.104592575998e-05
    42   -1.313675161430e-05
    43    4.384686549845e-16
    44   -1.803742944074e-06
    45   -1.338041001489e-06
    46    3.144600989871e-06
    47   -8.818907844352e-07
    48   -9.124851741899e-16
    49    3.363124449334e-05
    50   -3.212572566180e-05
    51   -1.291424617400e-05
    52    2.285055086724e-15
    53   -5.057757452907e-04
    54   -2.526163075807e-04
    55    6.066745006263e-05
    56   -1.856955590210e-15
    57   -2.320331647726e-04
    58   -2.046992546802e-04
    59   -5.185501899517e-04
    60   -9.232486288507e-15
    61   -7.751795126219e-06
    62   -3.234189446295e-16
    63    1.353878469901e-15
    64   -8.088349951852e-06
    65    2.103396452178e-05
    66   -2.897308375352e-05
    67   -3.002854799919e-05
    68   -1.577921717297e-05
    69   -5.247687545869e-06
    70    2.186273795834e-16
    71    3.200576410320e-05
    72   -2.470959055620e-05
    73   -7.400829173911e-06
    74    1.932227568739e-16
    75    9.506277673480e-05
    76    2.172047865966e-06
    77   -1.929916731982e-05
    78   -2.430285397446e-15
    79   -3.390164787951e-04
    80   -2.099197827004e-04
    81    1.485044868986e-04
    82    2.820554061753e-15
    83   -1.864505328058e-06
    84   -3.351653303338e-16
    85    2.124120333795e-16
    86    7.710912811827e-07
    87   -2.913384194765e-06
    88   -3.118324642237e-06
    89   -9.089088540889e-05
    90    5.778265329466e-05
    91    2.024953786904e-05
    92   -1.078928712335e-15
    93    3.725330945877e-04
    94    3.387285983761e-04
    95    1.737064218730e-04
    96    1.611089647660e-15
    97   -1.554043259008e-04
    98    7.229919900197e-04
    99    5.020053196358e-04
   100    9.895230673783e-17
   101   -2.944571405918e-03
   102   -9.249031596735e-04
   103    5.535497107920e-04
   104    6.212006879841e-16
   105   -5.812495385418e-05
   106    9.570964394396e-16
   107   -6.742920883847e-16
   108    8.364112451877e-05
   109    1.753861767477e-04
   110    5.514816039297e-01
   111    4.716762968317e-01
   112   -1.527508310446e-03
   113   -9.043443708359e-04
   114    1.694854698730e-15
   115    5.525382385198e-03
   116    6.207023793642e-04
   117    3.962321762139e-04
   118   -2.496847225474e-15
   119   -1.374138260202e-03
   120   -1.205069160228e-04
   121   -3.820322190123e-05
   122    3.519125082262e-15
   123    1.196316482193e-03
   124    8.407434184188e-05
   125    8.444764619274e-05
   126   -5.882171529496e-15
   127   -1.201394656843e-04
   128    8.878120449222e-16
   129    9.643296720810e-16
   130   -3.773739031439e-05
   131   -7.399836947795e-05
   132   -1.570909032578e-05
   133   -2.494690103979e-05
   134   -2.616186770925e-05
   135   -6.138040283641e-06
   136    6.251682340050e-16
   137    4.786104290897e-05
   138    5.237856880614e-06
   139   -1.206329430239e-05
   140   -4.757536462657e-16
   141    6.198932929503e-04
   142   -1.238255267917e-04
   143   -3.662259103662e-04
   144    2.534871074197e-16
   145    6.772081458595e-04
   146   -6.517347320659e-04
   147   -2.123206612187e-04
   148    2.311637571767e-15
   149   -1.200630452907e-05
   150    5.988726131357e-16
   151   -6.852717756268e-16
   152    2.583145557285e-05
   153   -1.313837064055e-05
   154   -3.474399655107e-05
   155   -5.929195760434e-05
   156   -5.967849896941e-05
   157   -3.713338657056e-05
   158   -1.232751490332e-15
   159    1.839195650017e-04
   160   -9.464532031137e-05
   161   -5.805416649191e-05
   162    2.852061641416e-15
   163    7.081850682164e-04
   164   -6.441798080190e-05
   165   -4.926334447496e-05
   166   -7.190894247985e-15
   167    1.514489058382e-03
   168   -3.780472903169e-04
   169    1.114801747019e-04
   170    1.873083050026e-14
   171   -7.006396231407e-06
   172   -1.721410129000e-15
   173    1.434891322696e-16
   174   -1.127419568787e-05
   175   -1.475442453651e-05
   176   -1.510703952300e-05
   177   -2.577438643235e-05
   178    1.780429431007e-05
   179   -3.182235718187e-05
   180    6.128136181702e-16
   181    5.720211012485e-05
   182    3.582955391676e-05
   183    5.457356123044e-05
   184   -5.365774562225e-16
   185    1.077518689981e-03
   186   -6.070824994125e-04
   187    1.608743127536e-04
   188   -4.312517718458e-15
   189    3.199253918696e-03
   190    2.990304711685e-04
   191    1.846042302747e-03
   192    1.515588367744e-14
   193   -1.465069380905e-05
   194    9.674801050734e-16
   195    9.694751980724e-16
   196   -4.586280129636e-05
   197    4.112004747421e-05
   198   -1.638666393141e-05
   199    9.225363256967e-05
   200    3.793409014588e-05
   201   -1.852737468422e-04
   202   -2.740539183352e-05
   203    1.788083443753e-05
   204   -7.787738825141e-16
Sym=X
Ene= 0.087786
Spin=Alpha
Occup=0
     1   -1.036790580561e-15
     2   -1.308504848435e-15
     3   -4.786163513278e-15
     4   -4.531266590800e-15
     5    8.554919784052e-02
     6    8.007033975629e-15
     7    8.118943675311e-15
     8   -1.976877995617e-14
     9    1.427106485395e-01
    10   -1.911915983597e-13
    11    2.621039197734e-14
    12   -1.308662605151e-13
    13    1.505743625308e-01
    14   -2.775205795699e-12
    15   -5.147803592959e-13
    16   -7.067353932252e-13
    17    2.138966996736e-02
    18   -4.999962809059e-17
    19    3.610880863131e-02
    20    1.191846586467e-03
    21    1.060134784481e-15
    22    4.956459310495e-15
    23    2.865673360545e-15
    24    8.698431020117e-14
    25    1.353612758360e-13
    26    1.457161954991e-13
    27    3.834310037391e-15
    28   -5.318571881006e-16
    29   -1.445336006116e-02
    30    1.511412454045e-15
    31   -4.568901300481e-14
    32    2.244636816674e-14
    33   -1.843231292172e-13
    34   -1.957965880534e-15
    35   -1.824615612969e-15
    36    6.671574978305e-03
    37   -3.808350485560e-15
    38   -6.033739901800e-14
    39    4.556872540485e-14
    40   -2.781115599451e-13
    41   -1.739650050860e-15
    42    2.330090324381e-15
    43   -1.823957705512e-04
    44   -2.954324037747e-16
    45   -7.697240385422e-16
    46   -1.882332940631e-15
    47    1.248068692126e-15
    48   -1.040022873188e-02
    49    1.340163833301e-14
    50    5.239448634974e-15
    51    7.013920418456e-15
    52   -2.199861430776e-02
    53   -4.941679652505e-14
    54   -5.832482836357e-14
    55   -8.581148811831e-14
    56    1.297391374639e-02
    57    4.823835855765e-13
    58    2.113102449700e-13
    59    1.375657477655e-13
    60    2.575688674748e-02
    61    2.938475152289e-15
    62   -2.016607791571e-02
    63    3.378343573799e-02
    64    5.821923706203e-15
    65    5.528192232437e-15
    66   -2.809617504089e-16
    67    9.969167845686e-16
    68    5.011153425243e-16
    69    3.207825134034e-15
    70    9.258070875061e-02
    71   -1.175928961721e-15
    72   -6.729964412033e-15
    73   -9.567592265930e-15
    74    1.401175441015e-01
    75   -9.160205484340e-15
    76    2.725831084331e-14
    77    5.290291159643e-14
    78    1.413131037099e-01
    79    3.569744789409e-14
    80   -2.143359261496e-14
    81   -9.486940363129e-14
    82    2.942742357935e-02
    83   -5.327572318273e-16
    84    4.926340535179e-03
    85   -2.063107746935e-03
    86    9.816490427396e-16
    87   -1.522137863400e-15
    88    3.662310237387e-16
    89   -1.117627176657e-15
    90   -3.622676672002e-15
    91    2.829845283081e-15
    92    1.046421465668e-02
    93   -9.110514736698e-15
    94   -2.300891475269e-15
    95    4.118657033092e-16
    96    2.152923577697e-02
    97    2.259345257585e-13
    98   -2.105756998187e-14
    99   -8.101873175547e-14
   100    5.710352196099e-03
   101   -2.275627516937e-12
   102   -2.450717048210e-13
   103    8.100911664628e-13
   104   -2.746482001965e-02
   105   -5.470081867657e-15
   106   -1.701119108592e-02
   107   -3.292474352155e-02
   108    5.926956256000e-15
   109    1.238178197524e-15
   110   -1.580274014948e-16
   111    1.052630963129e-16
   112    6.522862827886e-15
   113   -8.382233754242e-15
   114   -1.407145379138e-01
   115    1.271935502380e-15
   116    7.640943089994e-15
   117   -9.252171564408e-15
   118   -1.760073796336e-01
   119   -1.312375360676e-14
   120   -2.922306780940e-14
   121    5.326048598823e-14
   122   -1.385405747282e-01
   123    6.459282345249e-14
   124    1.204876932728e-13
   125   -2.433043362007e-14
   126   -2.525153779514e-02
   127    6.530745580920e-16
   128    5.763916991128e-03
   129    2.247815042610e-03
   130   -4.565555466096e-16
   131   -1.468397706092e-15
   132   -3.416781343874e-16
   133   -1.189535622898e-15
   134   -2.644186545002e-15
   135   -3.550234156809e-15
   136   -6.888709647983e-03
   137    5.399732134094e-15
   138    2.988416068641e-15
   139   -2.376807226160e-14
   140   -1.038189110778e-02
   141    7.789017918845e-14
   142   -2.014676598075e-14
   143    1.564244693468e-13
   144   -1.755285207110e-02
   145   -6.400029793434e-13
   146    4.847739432155e-14
   147    6.031684828249e-14
   148   -1.351092384069e-04
   149   -3.836163048710e-15
   150    6.661824273424e-04
   151   -1.192459526321e-04
   152    4.785214036100e-16
   153   -1.950440785184e-16
   154   -5.348411183828e-16
   155    4.550739753934e-16
   156   -3.132008005961e-15
   157   -3.049381566108e-15
   158   -1.509391237485e-01
   159    1.330379488987e-15
   160   -2.527790121138e-14
   161   -2.958556199741e-15
   162   -2.369208420619e-01
   163   -5.341209553221e-14
   164    2.180166197058e-13
   165    2.053421101616e-14
   166   -2.921799098998e-01
   167    4.646751615465e-13
   168    2.964963902803e-13
   169    1.200632825970e-13
   170   -9.411724604041e-02
   171    1.928059392504e-15
   172    3.698856278090e-03
   173   -6.266730305849e-03
   174   -3.351518305254e-15
   175   -2.831310575999e-15
   176   -1.520180911022e-15
   177   -4.075199289343e-16
   178   -2.386477562993e-15
   179   -2.141215045114e-16
   180    1.533786535791e-01
   181    1.146572596249e-14
   182   -1.570060359506e-14
   183   -8.493564684467e-15
   184    2.535115166677e-01
   185   -5.445533977044e-14
   186    5.046176180449e-17
   187   -2.866159361275e-14
   188    2.582943080878e-01
   189    4.755178939388e-12
   190   -4.243271916561e-13
   191    6.084593250824e-13
   192    4.811336669156e-02
   193    7.472989246848e-15
   194   -1.209590065960e-02
   195    2.530304250613e-03
   196   -9.955491109589e-16
   197   -4.808865500363e-16
   198   -5.184862209509e-15
   199    3.688313380207e-14
   200   -1.597097277574e-13
   201    2.074981160549e-13
   202   -5.833726415931e-15
   203    1.189272275872e-15
   204    1.186013982498e-02
[5D]
