[Molden Format]
[Atoms] (Angs)
  C      1    6     -0.00714236     -1.70213747     -0.00000000
  H      2    1     -2.06882847     -1.44022412      0.00000000
  H      3    1     -0.12337987     -2.77567521      0.00000000
  H      4    1      0.04651892      1.98813947     -0.00000000
  C      5    6     -1.21953563      0.40211669      0.00000000
  O      6    8     -2.25921553      1.03043814      0.00000000
  C      7    6      1.28797806      0.34644937     -0.00000000
  O      8    8      2.31273661      1.00537216     -0.00000000
  N      9    7      0.03446295      0.97739857     -0.00000000
  N     10    7     -1.17287765     -0.98229824      0.00000000
  C     11    6      1.20107039     -1.10433419     -0.00000000
  H     12    1      2.11220096     -1.67699125     -0.00000000
[GTO]
1    0
S    6    1.000000
   4.56324000E+03    1.96665000E-03 
   6.82024000E+02    1.52306000E-02 
   1.54973000E+02    7.61269000E-02 
   4.44553000E+01    2.60801000E-01 
   1.30290000E+01    6.16462000E-01 
   1.82773000E+00    2.21006000E-01 
SP   3    1.000000
   2.09642000E+01    1.14660000E-01   4.02487000E-02 
   4.80331000E+00    9.19999000E-01   2.37594000E-01 
   1.45933000E+00   -3.03068000E-03   8.15854000E-01 
SP   1    1.000000
   4.83456000E-01    1.00000000E+00   1.00000000E+00 
SP   1    1.000000
   1.45585000E-01    1.00000000E+00   1.00000000E+00 
SP   1    1.000000
   4.38000000E-02    1.00000000E+00   1.00000000E+00 
D    1    1.000000
   6.26000000E-01    1.00000000E+00 

2    0
S    3    1.000000
   3.38650000E+01    2.54938000E-02 
   5.09479000E+00    1.90373000E-01 
   1.15879000E+00    8.52161000E-01 
S    1    1.000000
   3.25840000E-01    1.00000000E+00 
S    1    1.000000
   1.02741000E-01    1.00000000E+00 
S    1    1.000000
   3.60000000E-02    1.00000000E+00 
P    1    1.000000
   7.50000000E-01    1.00000000E+00 

3    0
S    3    1.000000
   3.38650000E+01    2.54938000E-02 
   5.09479000E+00    1.90373000E-01 
   1.15879000E+00    8.52161000E-01 
S    1    1.000000
   3.25840000E-01    1.00000000E+00 
S    1    1.000000
   1.02741000E-01    1.00000000E+00 
S    1    1.000000
   3.60000000E-02    1.00000000E+00 
P    1    1.000000
   7.50000000E-01    1.00000000E+00 

4    0
S    3    1.000000
   3.38650000E+01    2.54938000E-02 
   5.09479000E+00    1.90373000E-01 
   1.15879000E+00    8.52161000E-01 
S    1    1.000000
   3.25840000E-01    1.00000000E+00 
S    1    1.000000
   1.02741000E-01    1.00000000E+00 
S    1    1.000000
   3.60000000E-02    1.00000000E+00 
P    1    1.000000
   7.50000000E-01    1.00000000E+00 

5    0
S    6    1.000000
   4.56324000E+03    1.96665000E-03 
   6.82024000E+02    1.52306000E-02 
   1.54973000E+02    7.61269000E-02 
   4.44553000E+01    2.60801000E-01 
   1.30290000E+01    6.16462000E-01 
   1.82773000E+00    2.21006000E-01 
SP   3    1.000000
   2.09642000E+01    1.14660000E-01   4.02487000E-02 
   4.80331000E+00    9.19999000E-01   2.37594000E-01 
   1.45933000E+00   -3.03068000E-03   8.15854000E-01 
SP   1    1.000000
   4.83456000E-01    1.00000000E+00   1.00000000E+00 
SP   1    1.000000
   1.45585000E-01    1.00000000E+00   1.00000000E+00 
SP   1    1.000000
   4.38000000E-02    1.00000000E+00   1.00000000E+00 
D    1    1.000000
   6.26000000E-01    1.00000000E+00 

6    0
S    6    1.000000
   8.58850000E+03    1.89515000E-03 
   1.29723000E+03    1.43859000E-02 
   2.99296000E+02    7.07320000E-02 
   8.73771000E+01    2.40001000E-01 
   2.56789000E+01    5.94797000E-01 
   3.74004000E+00    2.80802000E-01 
SP   3    1.000000
   4.21175000E+01    1.13889000E-01   3.65114000E-02 
   9.62837000E+00    9.20811000E-01   2.37153000E-01 
   2.85332000E+00   -3.27447000E-03   8.19702000E-01 
SP   1    1.000000
   9.05661000E-01    1.00000000E+00   1.00000000E+00 
SP   1    1.000000
   2.55611000E-01    1.00000000E+00   1.00000000E+00 
SP   1    1.000000
   8.45000000E-02    1.00000000E+00   1.00000000E+00 
D    1    1.000000
   1.29200000E+00    1.00000000E+00 

7    0
S    6    1.000000
   4.56324000E+03    1.96665000E-03 
   6.82024000E+02    1.52306000E-02 
   1.54973000E+02    7.61269000E-02 
   4.44553000E+01    2.60801000E-01 
   1.30290000E+01    6.16462000E-01 
   1.82773000E+00    2.21006000E-01 
SP   3    1.000000
   2.09642000E+01    1.14660000E-01   4.02487000E-02 
   4.80331000E+00    9.19999000E-01   2.37594000E-01 
   1.45933000E+00   -3.03068000E-03   8.15854000E-01 
SP   1    1.000000
   4.83456000E-01    1.00000000E+00   1.00000000E+00 
SP   1    1.000000
   1.45585000E-01    1.00000000E+00   1.00000000E+00 
SP   1    1.000000
   4.38000000E-02    1.00000000E+00   1.00000000E+00 
D    1    1.000000
   6.26000000E-01    1.00000000E+00 

8    0
S    6    1.000000
   8.58850000E+03    1.89515000E-03 
   1.29723000E+03    1.43859000E-02 
   2.99296000E+02    7.07320000E-02 
   8.73771000E+01    2.40001000E-01 
   2.56789000E+01    5.94797000E-01 
   3.74004000E+00    2.80802000E-01 
SP   3    1.000000
   4.21175000E+01    1.13889000E-01   3.65114000E-02 
   9.62837000E+00    9.20811000E-01   2.37153000E-01 
   2.85332000E+00   -3.27447000E-03   8.19702000E-01 
SP   1    1.000000
   9.05661000E-01    1.00000000E+00   1.00000000E+00 
SP   1    1.000000
   2.55611000E-01    1.00000000E+00   1.00000000E+00 
SP   1    1.000000
   8.45000000E-02    1.00000000E+00   1.00000000E+00 
D    1    1.000000
   1.29200000E+00    1.00000000E+00 

9    0
S    6    1.000000
   6.29348000E+03    1.96979000E-03 
   9.49044000E+02    1.49613000E-02 
   2.18776000E+02    7.35006000E-02 
   6.36916000E+01    2.48937000E-01 
   1.88282000E+01    6.02460000E-01 
   2.72023000E+00    2.56202000E-01 
SP   3    1.000000
   3.06331000E+01    1.11906000E-01   3.83119000E-02 
   7.02614000E+00    9.21666000E-01   2.37403000E-01 
   2.11205000E+00   -2.56919000E-03   8.17592000E-01 
SP   1    1.000000
   6.84009000E-01    1.00000000E+00   1.00000000E+00 
SP   1    1.000000
   2.00878000E-01    1.00000000E+00   1.00000000E+00 
SP   1    1.000000
   6.39000000E-02    1.00000000E+00   1.00000000E+00 
D    1    1.000000
   9.13000000E-01    1.00000000E+00 

10    0
S    6    1.000000
   6.29348000E+03    1.96979000E-03 
   9.49044000E+02    1.49613000E-02 
   2.18776000E+02    7.35006000E-02 
   6.36916000E+01    2.48937000E-01 
   1.88282000E+01    6.02460000E-01 
   2.72023000E+00    2.56202000E-01 
SP   3    1.000000
   3.06331000E+01    1.11906000E-01   3.83119000E-02 
   7.02614000E+00    9.21666000E-01   2.37403000E-01 
   2.11205000E+00   -2.56919000E-03   8.17592000E-01 
SP   1    1.000000
   6.84009000E-01    1.00000000E+00   1.00000000E+00 
SP   1    1.000000
   2.00878000E-01    1.00000000E+00   1.00000000E+00 
SP   1    1.000000
   6.39000000E-02    1.00000000E+00   1.00000000E+00 
D    1    1.000000
   9.13000000E-01    1.00000000E+00 

11    0
S    6    1.000000
   4.56324000E+03    1.96665000E-03 
   6.82024000E+02    1.52306000E-02 
   1.54973000E+02    7.61269000E-02 
   4.44553000E+01    2.60801000E-01 
   1.30290000E+01    6.16462000E-01 
   1.82773000E+00    2.21006000E-01 
SP   3    1.000000
   2.09642000E+01    1.14660000E-01   4.02487000E-02 
   4.80331000E+00    9.19999000E-01   2.37594000E-01 
   1.45933000E+00   -3.03068000E-03   8.15854000E-01 
SP   1    1.000000
   4.83456000E-01    1.00000000E+00   1.00000000E+00 
SP   1    1.000000
   1.45585000E-01    1.00000000E+00   1.00000000E+00 
SP   1    1.000000
   4.38000000E-02    1.00000000E+00   1.00000000E+00 
D    1    1.000000
   6.26000000E-01    1.00000000E+00 

12    0
S    3    1.000000
   3.38650000E+01    2.54938000E-02 
   5.09479000E+00    1.90373000E-01 
   1.15879000E+00    8.52161000E-01 
S    1    1.000000
   3.25840000E-01    1.00000000E+00 
S    1    1.000000
   1.02741000E-01    1.00000000E+00 
S    1    1.000000
   3.60000000E-02    1.00000000E+00 
P    1    1.000000
   7.50000000E-01    1.00000000E+00 

[MO]
Sym=X
Ene= -0.003042
Spin=Alpha
Occup=1
     1    1.781128366852e-15
     2    4.176707499068e-15
     3    2.618675868715e-16
     4    1.651191767403e-15
     5    9.828025611295e-02
     6   -3.716669754707e-14
     7    1.384572489014e-14
     8   -8.037491071058e-15
     9    1.593861389948e-01
    10   -6.908765869267e-14
    11   -6.001649883871e-14
    12   -1.949199072772e-14
    13    2.402656309744e-01
    14   -5.751772087047e-12
    15   -1.154436709234e-12
    16   -9.624167216321e-13
    17    4.109738954945e-02
    18   -6.442021351257e-16
    19    4.609595729058e-02
    20   -5.855203015002e-03
    21   -8.002739225759e-16
    22    2.330841398173e-15
    23   -1.743262076910e-15
    24    3.818563111791e-14
    25   -1.196647453082e-14
    26   -4.137390681927e-13
    27   -6.616273113986e-15
    28    4.033078853364e-16
    29   -3.166176610205e-02
    30    1.463114979581e-15
    31   -7.755143416899e-15
    32   -1.311510380901e-14
    33    2.198679303199e-14
    34    2.758699621154e-16
    35   -4.602297044183e-15
    36    1.303230357231e-02
    37   -6.214588667730e-15
    38   -1.495635755702e-14
    39   -2.159092740437e-13
    40    2.193712173752e-13
    41    7.233089675850e-15
    42    5.596381900390e-15
    43    6.289880777655e-06
    44   -1.649828065368e-15
    45   -4.049915908546e-15
    46   -2.684307999317e-15
    47    2.677628920233e-16
    48    5.999233618719e-03
    49    4.959334518970e-14
    50   -2.488613678012e-15
    51   -4.095415675587e-16
    52    5.038137063820e-03
    53   -1.931295589220e-13
    54   -2.384594104681e-13
    55   -5.689398334803e-14
    56    6.150162563647e-02
    57    1.402961929125e-12
    58    1.027083368776e-13
    59   -5.113739785852e-13
    60    2.180732772922e-02
    61    8.150761991444e-15
    62   -3.185375918584e-02
    63    2.237672970238e-02
    64   -2.592431247692e-15
    65   -4.055242973711e-15
    66   -1.359166534991e-15
    67   -9.134687780984e-16
    68   -2.969287422653e-15
    69   -1.868348317705e-15
    70    7.915151430420e-02
    71    1.035600598007e-14
    72   -2.274456427805e-16
    73   -5.088707883358e-15
    74    1.208600922201e-01
    75   -1.679129785142e-14
    76   -9.289213238298e-15
    77    1.833768690257e-14
    78    1.659440762740e-01
    79   -2.658674242448e-13
    80   -3.315253427996e-14
    81    1.226760952852e-13
    82    3.326478592464e-02
    83   -4.182044321212e-15
    84    1.300141112569e-03
    85   -9.485996061790e-03
    86    1.324064611042e-15
    87   -9.630958464034e-16
    88    2.584168297240e-15
    89    2.642909895429e-15
    90   -1.323430845990e-16
    91   -7.493726035644e-15
    92   -5.388200648829e-03
    93   -1.971462623407e-14
    94   -1.214181617188e-14
    95   -1.458532646917e-14
    96   -2.539074780310e-03
    97    1.277128613759e-13
    98    1.044978857948e-13
    99   -2.644530636044e-14
   100   -2.905013242694e-02
   101   -5.348313864800e-12
   102    1.063821902984e-12
   103    1.053258759762e-12
   104   -2.029828236275e-02
   105   -1.317922975689e-14
   106   -2.529576272488e-02
   107   -2.138025703830e-02
   108   -2.125983378445e-15
   109    1.196643064369e-14
   110   -7.885423693978e-16
   111   -1.168988129007e-15
   112   -4.409935233900e-15
   113    4.894812148925e-15
   114   -7.215847513679e-02
   115    8.911490064295e-15
   116   -1.036797341320e-15
   117    3.857115648055e-15
   118   -1.106510366515e-01
   119   -8.452436938818e-14
   120    1.773506446862e-14
   121    2.274014287190e-14
   122   -1.322231960254e-01
   123    3.429952913443e-14
   124   -6.291131700229e-14
   125   -1.234732063317e-13
   126   -2.806995085265e-02
   127    5.530518211802e-16
   128    3.321422621494e-03
   129    4.798378336451e-03
   130    6.733611863656e-16
   131   -4.513836407229e-15
   132   -2.785623993633e-16
   133   -9.401265498588e-16
   134    1.063087591967e-15
   135   -3.539978672262e-15
   136   -4.509786283171e-03
   137   -7.706750019991e-15
   138    4.019639340240e-15
   139   -2.174027783125e-14
   140   -6.483605714521e-03
   141    1.639366741000e-13
   142   -1.131982946464e-13
   143    2.022614486631e-14
   144   -1.171634559822e-02
   145    1.322235598685e-12
   146    1.526327759964e-13
   147   -1.824120502375e-14
   148   -1.076797710241e-02
   149   -6.177674629921e-15
   150    3.538408171767e-03
   151   -8.736704419457e-04
   152   -1.578582782686e-15
   153    1.274715675920e-15
   154   -3.105662313249e-15
   155   -4.454573568928e-15
   156   -5.061196828520e-15
   157   -3.990601578532e-15
   158   -1.665257274241e-01
   159    1.998212995509e-14
   160   -2.255204519658e-14
   161   -8.137660312996e-15
   162   -2.526326899901e-01
   163    3.638893107020e-14
   164    1.212269927822e-13
   165    3.507170099854e-14
   166   -3.782037336911e-01
   167   -3.416113837828e-13
   168   -3.066503936858e-14
   169   -6.706435308828e-14
   170   -1.034668656160e-01
   171   -4.244551538749e-15
   172    2.044642464460e-02
   173    3.085348824664e-03
   174    6.628190930590e-16
   175   -4.546651906762e-15
   176    5.725987576126e-16
   177    2.757412085506e-15
   178   -6.556102013691e-15
   179    2.333004932338e-15
   180    1.296047601092e-01
   181    1.256824583038e-14
   182   -1.828837832125e-14
   183    1.579186888273e-14
   184    2.068726908463e-01
   185   -1.550897950612e-13
   186   -1.045334604811e-13
   187   -1.192026810382e-13
   188    2.560869636438e-01
   189    9.604908869145e-12
   190   -1.721922664950e-12
   191    5.257595749958e-13
   192    2.623541444190e-02
   193    6.905651910097e-16
   194   -1.227044120570e-02
   195   -1.637443872309e-02
   196   -3.293907684292e-15
   197   -1.409620972545e-15
   198   -3.315209930104e-15
   199    7.924650436984e-14
   200   -1.588019643849e-13
   201   -3.658800346351e-14
   202   -5.178661067090e-15
   203    7.919095666241e-15
   204    1.553551803208e-02
Sym=X
Ene= -0.016979
Spin=Alpha
Occup=1
     1    1.071926660139e-15
     2    3.374961524445e-15
     3   -9.485999172395e-16
     4   -3.919952284166e-15
     5   -7.117190929822e-02
     6   -2.846893481830e-14
     7    1.190328617178e-14
     8   -4.678835247768e-15
     9   -1.186687213754e-01
    10    1.022015659438e-13
    11    3.106512136750e-14
    12   -6.000229409341e-14
    13   -7.854848854249e-02
    14   -1.403785297761e-11
    15   -3.729409795967e-12
    16   -2.443066196661e-12
    17   -2.819743099948e-02
    18   -4.961687674417e-15
    19    5.088495418446e-03
    20   -1.239969708853e-02
    21    9.777520873788e-16
    22    2.457934940949e-15
    23    7.510612762852e-15
    24   -4.626763077124e-14
    25    5.641924018286e-13
    26   -2.908678085809e-13
    27   -4.400738919027e-15
    28   -6.746031336005e-15
    29   -1.115541448851e-02
    30   -1.191095052934e-15
    31   -2.786178708277e-14
    32   -5.638919900310e-14
    33   -8.713309753871e-13
    34   -1.171029381797e-15
    35   -6.522483841547e-15
    36   -6.806880429212e-03
    37   -1.127875315944e-14
    38    2.356976141270e-14
    39   -6.643060126951e-13
    40    2.887153241626e-13
    41   -1.287310229132e-15
    42    2.452488318614e-15
    43   -7.527243228102e-03
    44   -1.339821039453e-15
    45   -1.595240984802e-15
    46   -3.702651441221e-15
    47    1.549872227486e-15
    48    4.098477403129e-02
    49    1.883672638140e-14
    50    1.040168136020e-15
    51   -5.847604625063e-15
    52    7.239049571459e-02
    53   -4.233143262316e-14
    54   -2.475661935915e-14
    55    4.968217910383e-15
    56    9.109196258031e-02
    57    1.717638746280e-12
    58    1.602934436443e-13
    59   -7.700093871774e-13
    60    2.073245645760e-02
    61    2.669767880619e-15
    62   -5.414713374881e-02
    63    2.112533021213e-02
    64   -9.124468119969e-16
    65   -3.034298962830e-15
    66   -2.678107159062e-16
    67    5.964518322371e-17
    68    1.260556485986e-16
    69   -4.229456741573e-16
    70    1.543161276927e-01
    71    2.304755778598e-17
    72    1.564794634289e-15
    73    2.990326974090e-15
    74    2.400874013486e-01
    75    2.091266987165e-14
    76    4.100475918155e-15
    77   -6.205066246221e-15
    78    2.370054439295e-01
    79   -1.709655231456e-13
    80   -6.870752467423e-14
    81    8.709016810929e-14
    82    3.510368029793e-02
    83   -1.096420137676e-15
    84    1.189893133183e-02
    85   -9.041959949625e-03
    86    2.199368573443e-16
    87   -1.947927238875e-15
    88    8.112741291122e-16
    89    1.279328176638e-15
    90   -4.465668779547e-15
    91   -1.832565481654e-16
    92    2.471083090138e-02
    93   -1.688100361380e-14
    94   -1.105555487267e-14
    95    8.376930778264e-15
    96    4.048837392537e-02
    97    1.421191837464e-13
    98    4.397112633422e-14
    99   -8.554375697449e-15
   100    7.335247459831e-02
   101    4.128785674480e-13
   102    1.523344946336e-12
   103   -1.123069686456e-12
   104    2.861898543533e-02
   105   -3.164920078396e-15
   106    4.418541489475e-02
   107    1.468483275033e-02
   108    1.575791320202e-15
   109    5.035124427669e-15
   110   -1.188649721129e-15
   111   -8.436383951795e-16
   112    2.774043224314e-15
   113    1.287693080127e-15
   114    1.214756749572e-01
   115    7.591096119329e-15
   116    3.422673266906e-15
   117    1.125007843027e-17
   118    1.895113304240e-01
   119   -2.827909437790e-14
   120    2.372667893868e-14
   121    1.623122224512e-14
   122    1.866023127532e-01
   123   -2.151444062820e-13
   124    1.245866288417e-14
   125    1.295436016687e-14
   126    3.185227024258e-02
   127    1.242073633891e-15
   128   -8.835897558133e-03
   129   -6.507231977945e-03
   130   -9.383522404040e-16
   131   -1.097044489596e-15
   132   -6.275076419588e-16
   133   -6.890470248500e-16
   134   -5.981141891386e-16
   135   -1.195799871486e-15
   136   -1.290583786486e-01
   137   -2.352572379009e-15
   138    3.685331575197e-15
   139   -1.767940491110e-14
   140   -2.044243367386e-01
   141    8.674073715649e-14
   142   -4.176408758682e-14
   143    6.859252659305e-14
   144   -2.587874071695e-01
   145    6.717695544520e-13
   146    3.561674797843e-13
   147    1.114732537611e-12
   148   -5.430532429315e-02
   149   -2.156601863365e-15
   150   -8.673323125050e-04
   151    4.236869415144e-03
   152    2.126508957680e-15
   153   -1.089575790968e-15
   154   -1.076841436885e-15
   155   -1.678220841839e-15
   156    3.517841024033e-16
   157    8.295739129720e-16
   158   -7.758888349072e-02
   159    5.410418799986e-15
   160   -1.342749654350e-14
   161   -5.862444646546e-15
   162   -1.219563764156e-01
   163    2.281631587710e-15
   164    3.095074961586e-14
   165    1.489904501758e-16
   166   -1.436872698610e-01
   167   -1.478588605705e-13
   168    9.459158389095e-13
   169    7.253453553583e-13
   170   -1.610966615427e-02
   171   -2.972078962150e-15
   172   -4.529187728937e-03
   173    8.097492592017e-03
   174    4.878082242655e-16
   175    1.387542645359e-15
   176    2.039533349625e-15
   177    7.974273584325e-16
   178   -2.029194886369e-15
   179    1.370338167487e-15
   180   -4.751981712095e-02
   181   -1.407869240973e-16
   182   -7.415563350448e-15
   183   -1.715529738346e-14
   184   -6.971298244638e-02
   185   -1.956980910398e-13
   186    5.277816417558e-15
   187    9.235466911651e-14
   188   -1.131306018533e-01
   189    1.213731436192e-11
   190   -4.567508812562e-12
   191   -2.188576324159e-12
   192   -2.348865810840e-02
   193    6.228696477249e-15
   194    6.184268931598e-03
   195    8.736605839443e-03
   196   -4.821598134545e-15
   197   -2.884057886411e-15
   198   -1.170727476906e-15
   199    3.342994453534e-14
   200   -1.666240994716e-14
   201    5.970456388523e-13
   202   -7.372515999794e-15
   203    1.443303873971e-15
   204   -6.528723946286e-03
Sym=X
Ene= -0.456193
Spin=Alpha
Occup=1
     1   -1.551232846201e-02
     2   -2.721958384354e-02
     3    4.011642767165e-03
     4   -5.218789585502e-02
     5   -5.369276399040e-15
     6    9.304652136682e-02
     7    6.085491390125e-04
     8   -8.324455603893e-02
     9   -1.489007736697e-14
    10    2.636702266507e-01
    11    2.521130038532e-02
    12   -1.962502531340e-01
    13   -4.897328720354e-15
    14    4.693898492525e-01
    15    1.351939901989e-01
    16   -1.172387612792e+00
    17   -5.490508022468e-13
    18   -7.452202785115e-03
    19    2.278140930012e-15
    20    4.255824685030e-15
    21    1.940393156926e-02
    22   -3.987774475951e-03
    23   -1.544370118880e-02
    24   -7.162055107513e-02
    25   -3.911280344266e-01
    26   -8.009939598386e-01
    27    1.391631048024e-02
    28    1.052400935687e-02
    29    8.919202080659e-16
    30    1.517155340779e-05
    31   -1.933211898607e-02
    32   -3.365553847121e-01
    33   -1.668092002753e+00
    34    5.411974404239e-03
    35    1.347249836901e-02
    36   -4.290881091852e-15
    37   -7.230940189604e-03
    38   -1.358981216867e-02
    39   -4.897445379796e-02
    40   -1.202280232627e-02
    41   -2.938337281337e-04
    42   -3.987401545716e-03
    43   -4.541606062943e-16
    44   -7.547855645757e-04
    45   -1.981243125076e-03
    46   -2.376409432657e-03
    47   -7.574317610332e-04
    48   -1.061142254172e-15
    49    2.777988860128e-02
    50   -1.675458614359e-04
    51   -5.986995149664e-03
    52    3.030209513095e-15
    53   -1.235571541178e-01
    54   -6.573603678782e-02
    55    2.886122994998e-02
    56   -4.325012737213e-15
    57    1.924581941794e-02
    58   -1.252898812362e-01
    59   -2.123689121134e-01
    60    3.813885170011e-13
    61   -7.727639834192e-03
    62    3.222030528722e-15
    63   -3.652698578553e-15
    64   -6.000634088529e-04
    65    1.304754546403e-02
    66   -4.471468002689e-03
    67   -7.797523950305e-03
    68   -1.013991173447e-02
    69   -3.392683948506e-03
    70   -4.212888300756e-15
    71    2.574376066096e-02
    72   -1.295813287927e-02
    73   -5.385860383594e-03
    74   -8.969187168416e-15
    75    4.293822408406e-02
    76   -9.701866477839e-03
    77   -1.258533747386e-02
    78    7.478140707834e-15
    79   -5.431666792701e-02
    80   -4.469395022690e-02
    81    6.508298047627e-02
    82   -1.516535605602e-13
    83   -1.396279084438e-03
    84    1.508246046753e-15
    85    1.396235987560e-15
    86    2.209955612126e-04
    87   -1.790755928288e-03
    88   -4.989662669798e-03
    89   -8.955074167526e-03
    90   -1.496810386745e-04
    91   -1.434674710527e-02
    92   -7.839953713552e-15
    93    3.631955882032e-02
    94   -3.124221640873e-03
    95   -2.175905906011e-02
    96   -6.972730117472e-15
    97    2.646482786778e-02
    98    5.604939640111e-02
    99   -2.465527043222e-03
   100   -7.343842387665e-14
   101   -4.774979441907e-01
   102   -1.626964672448e-01
   103    4.547447372483e-02
   104   -5.198226073660e-13
   105   -3.388067447789e-03
   106    2.442804090883e-15
   107   -1.701795885332e-15
   108   -1.402796027165e-03
   109   -5.329593469720e-03
   110   -1.403817500681e-03
   111   -2.502189190140e-03
   112    1.442269180736e-03
   113    9.608392961190e-03
   114    4.001721929685e-15
   115    9.478944210377e-03
   116    2.510989003693e-03
   117    1.467039507857e-02
   118    1.401736169213e-14
   119   -3.868174009087e-03
   120   -3.194446918505e-03
   121    1.793970063735e-02
   122   -2.153635368294e-14
   123    2.864475375056e-03
   124    4.467397491051e-02
   125    4.288900161395e-02
   126    2.041674278685e-13
   127   -5.431218896046e-04
   128   -9.824051890290e-17
   129    3.107515908573e-15
   130   -1.918105517362e-04
   131    6.026015379079e-04
   132   -1.001513660337e-02
   133   -1.733649622308e-02
   134   -9.411419451554e-03
   135   -4.529329340345e-03
   136    3.534079849527e-15
   137    5.476588089098e-02
   138   -1.450414716709e-02
   139   -8.764296777861e-03
   140    6.999135713339e-15
   141    1.599809007829e-01
   142   -3.280164415235e-02
   143   -3.996875365558e-02
   144    3.450052171942e-14
   145    4.895262033464e-01
   146   -3.347012845073e-02
   147   -4.696705538714e-02
   148   -7.961493970979e-14
   149   -1.890335063844e-03
   150   -7.799624304175e-16
   151   -6.152081984134e-16
   152    2.797570258914e-03
   153   -9.282819985157e-04
   154   -2.142383299478e-02
   155   -3.708968738959e-02
   156   -3.615026475525e-02
   157   -2.281473296871e-02
   158   -2.640557020955e-15
   159    1.179514449472e-01
   160   -5.666109530172e-02
   161   -3.451717569169e-02
   162    1.140447526408e-17
   163    3.525864679014e-01
   164   -8.570638867870e-02
   165   -4.385264576963e-02
   166   -5.301249824662e-14
   167    8.220762239448e-01
   168   -2.094145533044e-01
   169    6.258450935744e-02
   170    2.094887311877e-13
   171   -4.852263686365e-03
   172    8.134336612021e-16
   173    1.443789248572e-15
   174   -7.221059803848e-03
   175   -8.666208461736e-03
   176   -9.723300386057e-03
   177   -1.678276229248e-02
   178    1.250814439296e-02
   179   -1.028224047902e-02
   180    4.512752358529e-15
   181    5.113494614274e-02
   182    2.077096684726e-02
   183   -1.285364760967e-02
   184    2.056518223462e-14
   185    2.061185138579e-01
   186    3.360499031335e-03
   187    5.636630994072e-04
   188    1.477748707962e-14
   189    9.816138135968e-01
   190    1.438682895394e-01
   191    4.281689259857e-01
   192    6.229403710607e-13
   193   -5.176700059708e-03
   194   -2.981967845407e-15
   195   -3.110190347261e-17
   196   -9.535339688426e-03
   197    1.041697100335e-02
   198   -7.503729744463e-03
   199   -2.417190953098e-02
   200   -9.699635645062e-02
   201   -3.485638027548e-01
   202   -5.243130042819e-03
   203    4.037095323667e-03
   204   -5.577114152248e-16
Sym=X
Ene= 0.456193
Spin=Alpha
Occup=0
     1   -1.186359347897e-02
     2   -2.084998432363e-02
     3   -1.110399076973e-02
     4   -2.285147643596e-02
     5   -2.494247592745e-16
     6    6.970106412814e-02
     7   -1.589514803200e-02
     8   -3.583589474155e-02
     9    3.084289941742e-16
    10    1.232646704373e-01
    11   -1.513622599174e-01
    12   -1.245015799755e-01
    13   -7.640694467280e-15
    14    3.354011929171e+00
    15   -4.932069754179e-01
    16   -2.553083648123e-01
    17    6.461359715888e-13
    18    3.366071127574e-03
    19    5.846262775437e-15
    20   -4.001708558655e-15
    21    3.041978559608e-03
    22    2.064944659456e-03
    23    5.286382633346e-03
    24    2.252748788201e-02
    25    6.392422303984e-01
    26    1.395274599635e+00
    27   -1.270415443736e-02
    28   -8.039078711458e-03
    29   -6.639614682234e-15
    30   -2.450953537037e-03
    31   -2.064074691914e-02
    32   -2.693098688287e-01
    33   -1.670185445241e+00
    34   -7.379405166267e-03
    35    9.249989808977e-03
    36    1.485228061899e-15
    37   -2.825410184889e-05
    38   -1.308418244134e-03
    39    1.621501592059e-01
    40    2.368862481553e-02
    41    1.461644547081e-03
    42    1.639381058908e-03
    43   -1.143000614111e-15
    44   -6.161484799048e-03
    45   -1.091252958484e-02
    46    4.391290381436e-03
    47   -1.477407833003e-02
    48    3.962050981039e-14
    49    3.077419417124e-02
    50    4.952441126868e-03
    51   -2.715791536041e-02
    52    7.057384167184e-14
    53    5.952079271633e-02
    54   -2.507673830334e-02
    55    3.329177062834e-02
    56    1.611087823808e-13
    57    3.796676446213e-02
    58    6.789912351148e-02
    59    2.499892152365e-01
    60   -4.225597116058e-13
    61    9.175879056900e-03
    62    6.904946985912e-15
    63    1.537307131386e-15
    64   -1.949147309048e-03
    65   -8.344773505033e-03
    66    6.218643111370e-03
    67    1.073363952730e-02
    68    9.637012290167e-03
    69    1.334526262780e-02
    70   -3.097062156269e-14
    71   -3.452735380231e-02
    72    1.356142635053e-02
    73    2.052254202607e-02
    74   -3.888500986788e-14
    75   -8.276796179453e-02
    76    2.666871667003e-03
    77    2.930419789599e-02
    78   -1.112589962796e-13
    79   -5.686203764459e-02
    80    5.601333140421e-02
    81   -1.198597486288e-02
    82    1.948544524917e-13
    83    1.325260606804e-03
    84   -5.921565044057e-16
    85   -1.717850383690e-15
    86   -3.692652027400e-04
    87    1.322927989602e-03
    88    2.817093177541e-03
    89    4.952691874469e-03
    90    3.629399270566e-03
    91    7.596521561267e-03
    92   -1.144960257488e-14
    93   -1.159219492693e-02
    94    3.336487848173e-03
    95    1.087250047309e-02
    96   -2.391595488022e-14
    97   -7.498672076355e-02
    98    1.343033061578e-01
    99    8.556750487307e-02
   100   -4.962795890471e-14
   101    1.704513505121e+00
   102   -5.095125255777e-01
   103   -2.950808062315e-01
   104    5.166372060689e-13
   105   -2.636791082095e-03
   106    5.285421597258e-15
   107    1.594739149718e-15
   108    1.282526800507e-04
   109   -9.297022759803e-03
   110   -1.231291578232e-03
   111   -2.215103572435e-03
   112    8.673566404484e-03
   113   -2.862538744306e-03
   114    2.553903997795e-14
   115    8.967355332540e-03
   116    1.138499749964e-02
   117   -4.294523757168e-03
   118    2.317051921523e-14
   119   -1.120655096092e-02
   120    2.116988607837e-02
   121   -2.450039583049e-03
   122    1.084636330743e-13
   123   -2.372211180431e-01
   124    1.122341014612e-01
   125    8.808295900254e-02
   126   -2.603494577492e-13
   127   -7.780050949018e-04
   128    8.194223518964e-16
   129   -3.006775356147e-15
   130   -1.716425184146e-04
   131    3.010336664749e-04
   132    2.151989172376e-03
   133    3.772271549773e-03
   134    2.253858803269e-02
   135   -3.814650552208e-03
   136   -1.482625950959e-14
   137   -1.476809009031e-02
   138    3.343864055821e-02
   139   -5.150863600760e-03
   140   -9.052206761176e-15
   141    1.713541725473e-02
   142    7.311154389062e-02
   143   -3.403808170466e-02
   144   -9.613337171691e-14