[Molden Format]
[Atoms] (Angs)
  C      1    6     -0.00714236     -1.70213747     -0.00000000
  H      2    1     -2.06882847     -1.44022412      0.00000000
  H      3    1     -0.12337987     -2.77567521      0.00000000
  H      4    1      0.04651892      1.98813947     -0.00000000
  C      5    6     -1.21953563      0.40211669      0.00000000
  O      6    8     -2.25921553      1.03043814      0.00000000
  C      7    6      1.28797806      0.34644937     -0.00000000
  O      8    8      2.31273661      1.00537216     -0.00000000
  N      9    7      0.03446295      0.97739857     -0.00000000
  N     10    7     -1.17287765     -0.98229824      0.00000000
  C     11    6      1.20107039     -1.10433419     -0.00000000
  H     12    1      2.11220096     -1.67699125     -0.00000000
[GTO]
1    0
S    6    1.000000
   4.56324000E+03    1.96665000E-03 
   6.82024000E+02    1.52306000E-02 
   1.54973000E+02    7.61269000E-02 
   4.44553000E+01    2.60801000E-01 
   1.30290000E+01    6.16462000E-01 
   1.82773000E+00    2.21006000E-01 
SP   3    1.000000
   2.09642000E+01    1.14660000E-01   4.02487000E-02 
   4.80331000E+00    9.19999000E-01   2.37594000E-01 
   1.45933000E+00   -3.03068000E-03   8.15854000E-01 
SP   1    1.000000
   4.83456000E-01    1.00000000E+00   1.00000000E+00 
SP   1    1.000000
   1.45585000E-01    1.00000000E+00   1.00000000E+00 
SP   1    1.000000
   4.38000000E-02    1.00000000E+00   1.00000000E+00 
D    1    1.000000
   6.26000000E-01    1.00000000E+00 

2    0
S    3    1.000000
   3.38650000E+01    2.54938000E-02 
   5.09479000E+00    1.90373000E-01 
   1.15879000E+00    8.52161000E-01 
S    1    1.000000
   3.25840000E-01    1.00000000E+00 
S    1    1.000000
   1.02741000E-01    1.00000000E+00 
S    1    1.000000
   3.60000000E-02    1.00000000E+00 
P    1    1.000000
   7.50000000E-01    1.00000000E+00 

3    0
S    3    1.000000
   3.38650000E+01    2.54938000E-02 
   5.09479000E+00    1.90373000E-01 
   1.15879000E+00    8.52161000E-01 
S    1    1.000000
   3.25840000E-01    1.00000000E+00 
S    1    1.000000
   1.02741000E-01    1.00000000E+00 
S    1    1.000000
   3.60000000E-02    1.00000000E+00 
P    1    1.000000
   7.50000000E-01    1.00000000E+00 

4    0
S    3    1.000000
   3.38650000E+01    2.54938000E-02 
   5.09479000E+00    1.90373000E-01 
   1.15879000E+00    8.52161000E-01 
S    1    1.000000
   3.25840000E-01    1.00000000E+00 
S    1    1.000000
   1.02741000E-01    1.00000000E+00 
S    1    1.000000
   3.60000000E-02    1.00000000E+00 
P    1    1.000000
   7.50000000E-01    1.00000000E+00 

5    0
S    6    1.000000
   4.56324000E+03    1.96665000E-03 
   6.82024000E+02    1.52306000E-02 
   1.54973000E+02    7.61269000E-02 
   4.44553000E+01    2.60801000E-01 
   1.30290000E+01    6.16462000E-01 
   1.82773000E+00    2.21006000E-01 
SP   3    1.000000
   2.09642000E+01    1.14660000E-01   4.02487000E-02 
   4.80331000E+00    9.19999000E-01   2.37594000E-01 
   1.45933000E+00   -3.03068000E-03   8.15854000E-01 
SP   1    1.000000
   4.83456000E-01    1.00000000E+00   1.00000000E+00 
SP   1    1.000000
   1.45585000E-01    1.00000000E+00   1.00000000E+00 
SP   1    1.000000
   4.38000000E-02    1.00000000E+00   1.00000000E+00 
D    1    1.000000
   6.26000000E-01    1.00000000E+00 

6    0
S    6    1.000000
   8.58850000E+03    1.89515000E-03 
   1.29723000E+03    1.43859000E-02 
   2.99296000E+02    7.07320000E-02 
   8.73771000E+01    2.40001000E-01 
   2.56789000E+01    5.94797000E-01 
   3.74004000E+00    2.80802000E-01 
SP   3    1.000000
   4.21175000E+01    1.13889000E-01   3.65114000E-02 
   9.62837000E+00    9.20811000E-01   2.37153000E-01 
   2.85332000E+00   -3.27447000E-03   8.19702000E-01 
SP   1    1.000000
   9.05661000E-01    1.00000000E+00   1.00000000E+00 
SP   1    1.000000
   2.55611000E-01    1.00000000E+00   1.00000000E+00 
SP   1    1.000000
   8.45000000E-02    1.00000000E+00   1.00000000E+00 
D    1    1.000000
   1.29200000E+00    1.00000000E+00 

7    0
S    6    1.000000
   4.56324000E+03    1.96665000E-03 
   6.82024000E+02    1.52306000E-02 
   1.54973000E+02    7.61269000E-02 
   4.44553000E+01    2.60801000E-01 
   1.30290000E+01    6.16462000E-01 
   1.82773000E+00    2.21006000E-01 
SP   3    1.000000
   2.09642000E+01    1.14660000E-01   4.02487000E-02 
   4.80331000E+00    9.19999000E-01   2.37594000E-01 
   1.45933000E+00   -3.03068000E-03   8.15854000E-01 
SP   1    1.000000
   4.83456000E-01    1.00000000E+00   1.00000000E+00 
SP   1    1.000000
   1.45585000E-01    1.00000000E+00   1.00000000E+00 
SP   1    1.000000
   4.38000000E-02    1.00000000E+00   1.00000000E+00 
D    1    1.000000
   6.26000000E-01    1.00000000E+00 

8    0
S    6    1.000000
   8.58850000E+03    1.89515000E-03 
   1.29723000E+03    1.43859000E-02 
   2.99296000E+02    7.07320000E-02 
   8.73771000E+01    2.40001000E-01 
   2.56789000E+01    5.94797000E-01 
   3.74004000E+00    2.80802000E-01 
SP   3    1.000000
   4.21175000E+01    1.13889000E-01   3.65114000E-02 
   9.62837000E+00    9.20811000E-01   2.37153000E-01 
   2.85332000E+00   -3.27447000E-03   8.19702000E-01 
SP   1    1.000000
   9.05661000E-01    1.00000000E+00   1.00000000E+00 
SP   1    1.000000
   2.55611000E-01    1.00000000E+00   1.00000000E+00 
SP   1    1.000000
   8.45000000E-02    1.00000000E+00   1.00000000E+00 
D    1    1.000000
   1.29200000E+00    1.00000000E+00 

9    0
S    6    1.000000
   6.29348000E+03    1.96979000E-03 
   9.49044000E+02    1.49613000E-02 
   2.18776000E+02    7.35006000E-02 
   6.36916000E+01    2.48937000E-01 
   1.88282000E+01    6.02460000E-01 
   2.72023000E+00    2.56202000E-01 
SP   3    1.000000
   3.06331000E+01    1.11906000E-01   3.83119000E-02 
   7.02614000E+00    9.21666000E-01   2.37403000E-01 
   2.11205000E+00   -2.56919000E-03   8.17592000E-01 
SP   1    1.000000
   6.84009000E-01    1.00000000E+00   1.00000000E+00 
SP   1    1.000000
   2.00878000E-01    1.00000000E+00   1.00000000E+00 
SP   1    1.000000
   6.39000000E-02    1.00000000E+00   1.00000000E+00 
D    1    1.000000
   9.13000000E-01    1.00000000E+00 

10    0
S    6    1.000000
   6.29348000E+03    1.96979000E-03 
   9.49044000E+02    1.49613000E-02 
   2.18776000E+02    7.35006000E-02 
   6.36916000E+01    2.48937000E-01 
   1.88282000E+01    6.02460000E-01 
   2.72023000E+00    2.56202000E-01 
SP   3    1.000000
   3.06331000E+01    1.11906000E-01   3.83119000E-02 
   7.02614000E+00    9.21666000E-01   2.37403000E-01 
   2.11205000E+00   -2.56919000E-03   8.17592000E-01 
SP   1    1.000000
   6.84009000E-01    1.00000000E+00   1.00000000E+00 
SP   1    1.000000
   2.00878000E-01    1.00000000E+00   1.00000000E+00 
SP   1    1.000000
   6.39000000E-02    1.00000000E+00   1.00000000E+00 
D    1    1.000000
   9.13000000E-01    1.00000000E+00 

11    0
S    6    1.000000
   4.56324000E+03    1.96665000E-03 
   6.82024000E+02    1.52306000E-02 
   1.54973000E+02    7.61269000E-02 
   4.44553000E+01    2.60801000E-01 
   1.30290000E+01    6.16462000E-01 
   1.82773000E+00    2.21006000E-01 
SP   3    1.000000
   2.09642000E+01    1.14660000E-01   4.02487000E-02 
   4.80331000E+00    9.19999000E-01   2.37594000E-01 
   1.45933000E+00   -3.03068000E-03   8.15854000E-01 
SP   1    1.000000
   4.83456000E-01    1.00000000E+00   1.00000000E+00 
SP   1    1.000000
   1.45585000E-01    1.00000000E+00   1.00000000E+00 
SP   1    1.000000
   4.38000000E-02    1.00000000E+00   1.00000000E+00 
D    1    1.000000
   6.26000000E-01    1.00000000E+00 

12    0
S    3    1.000000
   3.38650000E+01    2.54938000E-02 
   5.09479000E+00    1.90373000E-01 
   1.15879000E+00    8.52161000E-01 
S    1    1.000000
   3.25840000E-01    1.00000000E+00 
S    1    1.000000
   1.02741000E-01    1.00000000E+00 
S    1    1.000000
   3.60000000E-02    1.00000000E+00 
P    1    1.000000
   7.50000000E-01    1.00000000E+00 

[MO]
Sym=X
Ene= -0.004370
Spin=Alpha
Occup=1
     1   -3.401342806585e-05
     2   -5.863057993872e-05
     3    3.914942638133e-06
     4   -1.115301235779e-04
     5   -3.238261093994e-16
     6    2.010370750112e-04
     7    2.691185198390e-05
     8   -2.031438557051e-04
     9    1.576417349362e-15
    10    3.223397145235e-04
    11    1.333126721679e-04
    12   -3.835336579923e-04
    13   -1.419850109933e-15
    14    1.578894565148e-03
    15    9.023112267844e-04
    16   -2.289411827557e-03
    17   -9.355195805516e-15
    18   -1.398040914769e-05
    19    9.393053649520e-17
    20    1.273619179953e-16
    21    4.663224315910e-05
    22   -4.068752578850e-06
    23   -2.805280655435e-05
    24   -9.951041183563e-05
    25   -7.022412625202e-04
    26   -1.380265476189e-03
    27    3.743662762775e-05
    28    1.359266855671e-05
    29   -7.371443120135e-17
    30   -3.226271405800e-06
    31    1.103174114781e-08
    32   -7.072945387223e-04
    33   -3.410692148798e-03
    34    9.581337387864e-06
    35    3.362071611491e-05
    36    6.736105619329e-16
    37   -1.118224314783e-05
    38    2.712843752622e-05
    39   -9.919864030927e-06
    40    3.204812127391e-04
    41    1.022082831950e-05
    42   -1.371836309595e-05
    43    8.452815239651e-16
    44    3.402990025019e-06
    45   -8.170060220707e-05
    46   -6.616410326790e-05
    47    3.577077894483e-05
    48   -9.179740471260e-16
    49    3.670352341531e-04
    50   -3.617125300324e-04
    51    2.048460966772e-04
    52    4.117787844816e-15
    53   -3.074943831128e-04
    54   -6.303374394879e-04
    55    3.655678713100e-04
    56   -4.676407565590e-15
    57    5.014118919044e-04
    58    3.506954510413e-04
    59   -8.839878386546e-04
    60   -5.847014357282e-15
    61   -7.303304057875e-05
    62   -8.561748590672e-16
    63   -6.205224031459e-16
    64    9.145601893304e-05
    65   -1.514913631514e-04
    66    5.514688291293e-01
    67    4.716595791049e-01
    68    1.543807469585e-03
    69   -9.647952287588e-04
    70    2.003285235257e-16
    71    5.586619274402e-03
    72   -6.605273001325e-04
    73    3.783618030395e-04
    74   -3.219282951485e-16
    75   -1.253610121070e-03
    76    1.133190099259e-04
    77   -1.131124070148e-04
    78   -1.021402337473e-15
    79    1.305695208506e-03
    80   -3.768915332284e-05
    81    1.275582130282e-04
    82    1.822045597444e-15
    83   -9.022016920427e-05
    84   -2.941156774902e-16
    85    2.765198920674e-16
    86   -3.832848782846e-05
    87    6.574657074893e-05
    88   -1.156583361910e-05
    89   -1.924037168961e-05
    90   -4.341904704963e-06
    91   -3.048067269226e-05
    92   -2.459551939144e-16
    93    7.615072063313e-05
    94    1.187575471180e-05
    95   -6.032117205303e-05
    96    2.623496362093e-15
    97   -1.368778643856e-04
    98    2.205043873630e-04
    99   -5.415525978141e-05
   100   -3.867184800210e-15
   101   -2.087325409767e-04
   102   -2.271756937438e-04
   103   -6.034607173480e-04
   104   -1.888258581773e-14
   105   -4.297837944803e-06
   106   -1.264507167927e-17
   107    2.632185863435e-17
   108   -1.140487297946e-05
   109   -9.336069134996e-06
   110    3.968021810521e-05
   111    3.200837429913e-05
   112    3.247670425061e-06
   113    2.084373442423e-05
   114    1.480731570274e-15
   115    1.304036551376e-05
   116    6.404218230547e-06
   117    3.424060431734e-05
   118   -1.141442789731e-15
   119    2.768390069354e-05
   120   -1.993432473653e-05
   121    3.315689448526e-05
   122   -1.878750790323e-15
   123   -1.856745020372e-04
   124    1.810528632940e-04
   125    1.646087978154e-04
   126    7.556411605053e-15
   127   -8.973419515194e-07
   128    4.774320444796e-16
   129    1.093045778561e-15
   130    3.462826774815e-07
   131    1.630929752857e-06
   132   -2.076691697755e-05
   133   -3.483340436539e-05
   134   -8.440074193783e-06
   135   -1.010253528705e-05
   136    4.933575186947e-16
   137    8.798484945499e-05
   138   -6.179229853273e-05
   139   -1.208880102652e-05
   140    3.309471834047e-17
   141    6.374177107183e-04
   142   -1.787407460525e-05
   143   -3.353368067772e-04
   144   -2.040101182841e-15
   145    1.028189753768e-03
   146    4.814883042349e-04
   147   -1.797453299857e-04
   148    1.209828986272e-14
   149   -1.119860378152e-05
   150    2.167594667450e-16
   151   -7.273442472470e-16
   152    2.861305470120e-05
   153    4.976568538802e-06
   154   -4.490379290803e-05
   155   -7.670328763088e-05
   156   -7.169889795720e-05
   157   -5.818320009972e-05
   158   -6.737288252788e-16
   159    2.258050729964e-04
   160   -1.357408342993e-04
   161   -4.741149291416e-05
   162    8.330649677909e-17
   163    1.002727624876e-03
   164    5.719629907308e-05
   165   -2.128537968183e-05
   166   -1.001733943369e-15
   167    1.693210866890e-03
   168   -1.304445507050e-04
   169   -2.303472531449e-04
   170    8.121332271531e-15
   171   -1.746888495553e-05
   172   -2.524774393999e-16
   173    2.768822705938e-16
   174   -3.399604408631e-05
   175   -3.129111677337e-05
   176   -2.136962174186e-05
   177   -3.770534779957e-05
   178    3.039543449223e-05
   179   -2.246791321900e-05
   180   -1.366544278595e-15
   181    1.288366623446e-04
   182    4.090605224639e-05
   183   -1.994215060864e-05
   184    5.448541819426e-16
   185    3.714930750185e-04
   186    6.105169732481e-05
   187   -3.030504459314e-05
   188   -7.415906472562e-16
   189   -9.105540620327e-04
   190    7.692636296084e-04
   191    5.814583954936e-04
   192    1.647926506897e-14
   193   -5.889774125774e-06
   194   -4.510910970856e-17
   195   -3.607225961807e-16
   196   -2.188444628497e-05
   197    2.071209416032e-05
   198   -1.521398154628e-05
   199   -6.217316725369e-05
   200   -2.316851325989e-04
   201   -9.291022671238e-04
   202   -1.163466411775e-05
   203    9.254621704041e-06
   204    8.142480416075e-16
Sym=X
Ene= 0.004370
Spin=Alpha
Occup=0
     1    2.122448120000e-15
     2    3.978955958332e-15
     3   -2.910826088749e-16
     4    9.987748379602e-16
     5   -1.146920537692e-01
     6   -2.874879694391e-14
     7    8.059452525495e-15
     8   -9.891666876040e-15
     9   -1.869284801370e-01
    10   -1.762432513487e-13
    11    2.297531289115e-14
    12   -1.556230948205e-13
    13   -2.054394327010e-01
    14   -1.090243557432e-12
    15   -4.975494621997e-13
    16   -2.414065011629e-13
    17   -3.274394659040e-02
    18    3.560169264354e-15
    19   -3.040456845584e-02
    20   -6.468736825402e-03
    21    4.640492274459e-15
    22    1.018226615850e-15
    23   -4.645500521535e-16
    24    1.375500892963e-13
    25    7.391649271746e-14
    26    5.157103264107e-14
    27    1.006135555353e-14
    28    4.641368691097e-15
    29    1.948038919064e-02
    30   -2.296629569110e-15
    31    5.353541958201e-15
    32   -2.157424424429e-13
    33   -4.410934340292e-13
    34    2.945034252856e-15
    35   -1.240452002755e-15
    36   -8.445993679506e-03
    37   -1.690152922924e-15
    38   -9.100870523325e-14
    39   -2.572064005702e-13
    40    1.424084408999e-13
    41   -2.628216978260e-15
    42    6.437286710398e-15
    43    1.727933736440e-04
    44   -7.645799544103e-16
    45   -1.363107524257e-15
    46   -1.105437235885e-15
    47   -7.763526552924e-16
    48    2.662091418513e-02
    49    1.290582537543e-14
    50   -8.753640507802e-15
    51    6.073409987768e-15
    52    5.236903995238e-02
    53    3.194090099423e-14
    54   -2.991596230091e-13
    55   -2.305692708062e-13
    56    1.321451965637e-02
    57   -5.338520748502e-13
    58   -2.053950334577e-13
    59   -3.698413119489e-14
    60   -2.569114653468e-02
    61   -3.482348662959e-15
    62    7.651055624212e-03
    63   -3.020793942744e-02
    64   -4.281140032817e-15
    65   -3.609440072033e-15
    66    1.376111596163e-16
    67   -1.063416593801e-15
    68   -9.400200017937e-16
    69   -2.113324696870e-15
    70   -1.120976033711e-01
    71    8.882770537874e-15
    72    6.022930523929e-16
    73    6.906890450522e-16
    74   -1.401279324136e-01
    75   -5.809496015416e-14
    76   -5.107094996320e-15
    77    4.426035641010e-14
    78   -1.141442147435e-01
    79   -2.208631725634e-13
    80   -5.734193916324e-14
    81    7.929789722989e-14
    82   -1.619487628035e-02
    83    9.441013108104e-16
    84   -2.744665979168e-03
    85    8.379232259882e-04
    86   -3.041299432220e-16
    87    7.102358318189e-16
    88    1.348503578359e-17
    89    2.229949041914e-15
    90    1.474450148689e-15
    91   -3.187696179505e-15
    92   -8.384140673665e-04
    93   -2.005490357924e-14
    94   -1.942228124236e-14
    95    7.146328085333e-15
    96   -9.078376288491e-04
    97    1.130309690973e-13
    98   -8.103982932108e-14
    99   -1.528271446227e-14
   100    6.001178668772e-03
   101    2.378046250343e-12
   102    4.986914836753e-13
   103   -9.587902397017e-13
   104    2.336040510734e-02
   105   -1.892944467057e-16
   106    2.218012257849e-02
   107    3.271246685009e-02
   108    9.114634583375e-16
   109    4.375106608775e-15
   110   -6.170744310129e-16
   111   -1.425932823864e-15
   112   -2.948256475834e-15
   113    6.179067852371e-15
   114    9.717981522781e-02
   115    9.015275967212e-15
   116   -2.005525800815e-15
   117    1.465013548466e-14
   118    1.468325650102e-01
   119    7.896783883334e-15
   120    1.050135801836e-14
   121   -4.679582812902e-14
   122    1.469304580594e-01
   123   -4.162587331304e-14
   124   -7.546941340888e-14
   125    6.370124638863e-14
   126    4.257789916258e-02
   127   -1.083349907707e-15
   128   -5.685377769865e-03
   129   -2.108961074407e-03
   130    6.927987110542e-16
   131    1.584139047030e-15
   132    4.406659120673e-16
   133    1.887936341374e-15
   134   -1.881115179841e-15
   135   -5.775373826913e-15
   136   -4.620701896255e-03
   137   -2.710356858540e-14
   138   -2.397130837804e-15
   139   -3.441105391083e-14
   140   -5.580994179850e-03
   141    2.436139692713e-13
   142   -1.390138566141e-13
   143    1.854312492342e-13
   144   -1.333861923964e-02
   145    5.571567362950e-13
   146   -1.865438598559e-13
   147    3.236356303086e-13
   148   -9.697617300212e-03
   149    9.011932660617e-16
   150   -1.138083170464e-03
   151    6.476306774945e-04
   152   -4.651556666257e-15
   153    2.716618077509e-16
   154   -1.302153474979e-15
   155   -3.826216268414e-15
   156   -2.552808801926e-15
   157    8.883709994185e-18
   158    1.348557770770e-01
   159    2.576492375266e-14
   160   -3.133775365057e-14
   161   -5.720612705223e-15
   162    2.084642067870e-01
   163   -1.427937395116e-13
   164    3.084067170137e-13
   165   -2.096657025671e-14
   166    2.569271885289e-01
   167    8.065026861796e-14
   168    1.284826105865e-13
   169    1.821212253724e-13
   170    1.085852154168e-01
   171    2.207550049217e-15
   172   -1.209462583743e-02
   173    8.529835724414e-03
   174   -4.020736805565e-15
   175   -3.188292983591e-15
   176    1.375836821852e-15
   177    1.781697803615e-16
   178   -6.254955562293e-16
   179   -1.128401186695e-15
   180   -1.577322979046e-01
   181   -2.274754717675e-15
   182   -1.005402672357e-14
   183   -9.505764410513e-15
   184   -2.571996061543e-01
   185   -1.438388654480e-14
   186   -5.281712885678e-14
   187    7.594292549774e-14
   188   -2.464856899389e-01
   189   -8.145983981040e-13
   190   -9.665022108213e-13
   191   -1.018768907091e-12
   192   -5.864566613799e-02
   193   -7.388815755445e-15
   194    1.688544513933e-02
   195    7.994901738531e-04
   196   -2.220489785815e-15
   197   -2.565995321926e-15
   198    3.191352167588e-15
   199    6.980160463509e-16
   200    1.244116924591e-13
   201    1.491468427477e-13
   202   -2.966525206274e-15
   203   -1.294615044658e-15
   204   -1.243378227258e-02
[5D]
