[Molden Format]
[Atoms] (Angs)
  C      1    6     -0.00714236     -1.70213747     -0.00000000
  H      2    1     -2.06882847     -1.44022412      0.00000000
  H      3    1     -0.12337987     -2.77567521      0.00000000
  H      4    1      0.04651892      1.98813947     -0.00000000
  C      5    6     -1.21953563      0.40211669      0.00000000
  O      6    8     -2.25921553      1.03043814      0.00000000
  C      7    6      1.28797806      0.34644937     -0.00000000
  O      8    8      2.31273661      1.00537216     -0.00000000
  N      9    7      0.03446295      0.97739857     -0.00000000
  N     10    7     -1.17287765     -0.98229824      0.00000000
  C     11    6      1.20107039     -1.10433419     -0.00000000
  H     12    1      2.11220096     -1.67699125     -0.00000000
[GTO]
1    0
S    6    1.000000
   4.56324000E+03    1.96665000E-03 
   6.82024000E+02    1.52306000E-02 
   1.54973000E+02    7.61269000E-02 
   4.44553000E+01    2.60801000E-01 
   1.30290000E+01    6.16462000E-01 
   1.82773000E+00    2.21006000E-01 
SP   3    1.000000
   2.09642000E+01    1.14660000E-01   4.02487000E-02 
   4.80331000E+00    9.19999000E-01   2.37594000E-01 
   1.45933000E+00   -3.03068000E-03   8.15854000E-01 
SP   1    1.000000
   4.83456000E-01    1.00000000E+00   1.00000000E+00 
SP   1    1.000000
   1.45585000E-01    1.00000000E+00   1.00000000E+00 
SP   1    1.000000
   4.38000000E-02    1.00000000E+00   1.00000000E+00 
D    1    1.000000
   6.26000000E-01    1.00000000E+00 

2    0
S    3    1.000000
   3.38650000E+01    2.54938000E-02 
   5.09479000E+00    1.90373000E-01 
   1.15879000E+00    8.52161000E-01 
S    1    1.000000
   3.25840000E-01    1.00000000E+00 
S    1    1.000000
   1.02741000E-01    1.00000000E+00 
S    1    1.000000
   3.60000000E-02    1.00000000E+00 
P    1    1.000000
   7.50000000E-01    1.00000000E+00 

3    0
S    3    1.000000
   3.38650000E+01    2.54938000E-02 
   5.09479000E+00    1.90373000E-01 
   1.15879000E+00    8.52161000E-01 
S    1    1.000000
   3.25840000E-01    1.00000000E+00 
S    1    1.000000
   1.02741000E-01    1.00000000E+00 
S    1    1.000000
   3.60000000E-02    1.00000000E+00 
P    1    1.000000
   7.50000000E-01    1.00000000E+00 

4    0
S    3    1.000000
   3.38650000E+01    2.54938000E-02 
   5.09479000E+00    1.90373000E-01 
   1.15879000E+00    8.52161000E-01 
S    1    1.000000
   3.25840000E-01    1.00000000E+00 
S    1    1.000000
   1.02741000E-01    1.00000000E+00 
S    1    1.000000
   3.60000000E-02    1.00000000E+00 
P    1    1.000000
   7.50000000E-01    1.00000000E+00 

5    0
S    6    1.000000
   4.56324000E+03    1.96665000E-03 
   6.82024000E+02    1.52306000E-02 
   1.54973000E+02    7.61269000E-02 
   4.44553000E+01    2.60801000E-01 
   1.30290000E+01    6.16462000E-01 
   1.82773000E+00    2.21006000E-01 
SP   3    1.000000
   2.09642000E+01    1.14660000E-01   4.02487000E-02 
   4.80331000E+00    9.19999000E-01   2.37594000E-01 
   1.45933000E+00   -3.03068000E-03   8.15854000E-01 
SP   1    1.000000
   4.83456000E-01    1.00000000E+00   1.00000000E+00 
SP   1    1.000000
   1.45585000E-01    1.00000000E+00   1.00000000E+00 
SP   1    1.000000
   4.38000000E-02    1.00000000E+00   1.00000000E+00 
D    1    1.000000
   6.26000000E-01    1.00000000E+00 

6    0
S    6    1.000000
   8.58850000E+03    1.89515000E-03 
   1.29723000E+03    1.43859000E-02 
   2.99296000E+02    7.07320000E-02 
   8.73771000E+01    2.40001000E-01 
   2.56789000E+01    5.94797000E-01 
   3.74004000E+00    2.80802000E-01 
SP   3    1.000000
   4.21175000E+01    1.13889000E-01   3.65114000E-02 
   9.62837000E+00    9.20811000E-01   2.37153000E-01 
   2.85332000E+00   -3.27447000E-03   8.19702000E-01 
SP   1    1.000000
   9.05661000E-01    1.00000000E+00   1.00000000E+00 
SP   1    1.000000
   2.55611000E-01    1.00000000E+00   1.00000000E+00 
SP   1    1.000000
   8.45000000E-02    1.00000000E+00   1.00000000E+00 
D    1    1.000000
   1.29200000E+00    1.00000000E+00 

7    0
S    6    1.000000
   4.56324000E+03    1.96665000E-03 
   6.82024000E+02    1.52306000E-02 
   1.54973000E+02    7.61269000E-02 
   4.44553000E+01    2.60801000E-01 
   1.30290000E+01    6.16462000E-01 
   1.82773000E+00    2.21006000E-01 
SP   3    1.000000
   2.09642000E+01    1.14660000E-01   4.02487000E-02 
   4.80331000E+00    9.19999000E-01   2.37594000E-01 
   1.45933000E+00   -3.03068000E-03   8.15854000E-01 
SP   1    1.000000
   4.83456000E-01    1.00000000E+00   1.00000000E+00 
SP   1    1.000000
   1.45585000E-01    1.00000000E+00   1.00000000E+00 
SP   1    1.000000
   4.38000000E-02    1.00000000E+00   1.00000000E+00 
D    1    1.000000
   6.26000000E-01    1.00000000E+00 

8    0
S    6    1.000000
   8.58850000E+03    1.89515000E-03 
   1.29723000E+03    1.43859000E-02 
   2.99296000E+02    7.07320000E-02 
   8.73771000E+01    2.40001000E-01 
   2.56789000E+01    5.94797000E-01 
   3.74004000E+00    2.80802000E-01 
SP   3    1.000000
   4.21175000E+01    1.13889000E-01   3.65114000E-02 
   9.62837000E+00    9.20811000E-01   2.37153000E-01 
   2.85332000E+00   -3.27447000E-03   8.19702000E-01 
SP   1    1.000000
   9.05661000E-01    1.00000000E+00   1.00000000E+00 
SP   1    1.000000
   2.55611000E-01    1.00000000E+00   1.00000000E+00 
SP   1    1.000000
   8.45000000E-02    1.00000000E+00   1.00000000E+00 
D    1    1.000000
   1.29200000E+00    1.00000000E+00 

9    0
S    6    1.000000
   6.29348000E+03    1.96979000E-03 
   9.49044000E+02    1.49613000E-02 
   2.18776000E+02    7.35006000E-02 
   6.36916000E+01    2.48937000E-01 
   1.88282000E+01    6.02460000E-01 
   2.72023000E+00    2.56202000E-01 
SP   3    1.000000
   3.06331000E+01    1.11906000E-01   3.83119000E-02 
   7.02614000E+00    9.21666000E-01   2.37403000E-01 
   2.11205000E+00   -2.56919000E-03   8.17592000E-01 
SP   1    1.000000
   6.84009000E-01    1.00000000E+00   1.00000000E+00 
SP   1    1.000000
   2.00878000E-01    1.00000000E+00   1.00000000E+00 
SP   1    1.000000
   6.39000000E-02    1.00000000E+00   1.00000000E+00 
D    1    1.000000
   9.13000000E-01    1.00000000E+00 

10    0
S    6    1.000000
   6.29348000E+03    1.96979000E-03 
   9.49044000E+02    1.49613000E-02 
   2.18776000E+02    7.35006000E-02 
   6.36916000E+01    2.48937000E-01 
   1.88282000E+01    6.02460000E-01 
   2.72023000E+00    2.56202000E-01 
SP   3    1.000000
   3.06331000E+01    1.11906000E-01   3.83119000E-02 
   7.02614000E+00    9.21666000E-01   2.37403000E-01 
   2.11205000E+00   -2.56919000E-03   8.17592000E-01 
SP   1    1.000000
   6.84009000E-01    1.00000000E+00   1.00000000E+00 
SP   1    1.000000
   2.00878000E-01    1.00000000E+00   1.00000000E+00 
SP   1    1.000000
   6.39000000E-02    1.00000000E+00   1.00000000E+00 
D    1    1.000000
   9.13000000E-01    1.00000000E+00 

11    0
S    6    1.000000
   4.56324000E+03    1.96665000E-03 
   6.82024000E+02    1.52306000E-02 
   1.54973000E+02    7.61269000E-02 
   4.44553000E+01    2.60801000E-01 
   1.30290000E+01    6.16462000E-01 
   1.82773000E+00    2.21006000E-01 
SP   3    1.000000
   2.09642000E+01    1.14660000E-01   4.02487000E-02 
   4.80331000E+00    9.19999000E-01   2.37594000E-01 
   1.45933000E+00   -3.03068000E-03   8.15854000E-01 
SP   1    1.000000
   4.83456000E-01    1.00000000E+00   1.00000000E+00 
SP   1    1.000000
   1.45585000E-01    1.00000000E+00   1.00000000E+00 
SP   1    1.000000
   4.38000000E-02    1.00000000E+00   1.00000000E+00 
D    1    1.000000
   6.26000000E-01    1.00000000E+00 

12    0
S    3    1.000000
   3.38650000E+01    2.54938000E-02 
   5.09479000E+00    1.90373000E-01 
   1.15879000E+00    8.52161000E-01 
S    1    1.000000
   3.25840000E-01    1.00000000E+00 
S    1    1.000000
   1.02741000E-01    1.00000000E+00 
S    1    1.000000
   3.60000000E-02    1.00000000E+00 
P    1    1.000000
   7.50000000E-01    1.00000000E+00 

[MO]
Sym=X
Ene= -0.428797
Spin=Alpha
Occup=1
     1    6.821639918899e-08
     2    1.099052316024e-06
     3   -3.205306591717e-06
     4   -3.379936384420e-07
     5   -5.355894180925e-16
     6   -1.074847244676e-05
     7    1.018119334597e-05
     8   -1.133415275042e-06
     9    9.183582205541e-16
    10    6.216190865056e-04
    11    1.369067373767e-04
    12    2.582956757005e-04
    13   -5.642981625280e-15
    14   -8.055325226858e-05
    15   -3.154529897052e-04
    16    6.116965639572e-04
    17    2.185605703293e-14
    18   -9.277652131150e-07
    19   -8.767960472622e-16
    20   -9.371707753247e-16
    21    3.944048314829e-06
    22   -4.566615257539e-06
    23   -1.029687516662e-07
    24   -5.957334693583e-06
    25    3.580921901329e-05
    26   -7.431886259187e-05
    27    3.364630864203e-06
    28   -9.697057472730e-07
    29    6.477096203380e-16
    30    2.514798228380e-06
    31   -3.854797972854e-06
    32    1.320101649817e-04
    33    3.102300656198e-04
    34   -5.768904499896e-06
    35   -6.279615706238e-07
    36   -9.248062675338e-16
    37   -2.099608434611e-06
    38   -7.418640958672e-05
    39   -1.044088193228e-04
    40   -9.231632523316e-05
    41    1.051782295540e-05
    42    6.770740014299e-06
    43   -4.392531021905e-16
    44    6.617958726545e-07
    45   -1.743089763224e-06
    46   -7.017836610709e-06
    47   -3.556657290022e-07
    48    9.116435539569e-16
    49    1.097540359574e-05
    50    3.174234703344e-05
    51    3.088379267893e-06
    52   -2.277351272410e-15
    53    3.114971594293e-04
    54    1.470915011514e-04
    55   -1.399320286033e-05
    56    1.859072139680e-15
    57    2.665099660604e-04
    58    4.858123510343e-06
    59    1.807513892202e-04
    60    9.854811871062e-15
    61   -4.553972408447e-06
    62    3.283854571997e-16
    63   -1.362778995140e-15
    64    6.985441823988e-06
    65    1.162646552650e-07
    66   -7.171649724966e-07
    67   -1.651229077859e-06
    68   -4.382383410633e-07
    69    2.462394097072e-07
    70   -2.291883200078e-16
    71    8.856721974856e-06
    72    4.298581289077e-06
    73   -6.518386467556e-07
    74   -2.129405782012e-16
    75   -2.845049173058e-05
    76   -1.765296981644e-05
    77    2.338132466139e-07
    78    2.433133576373e-15
    79    2.506067775451e-04
    80    1.390600866104e-04
    81   -4.495307901076e-05
    82   -3.064553776691e-15
    83   -3.449931326008e-07
    84    3.382968275741e-16
    85   -2.090559409978e-16
    86   -3.857639239715e-07
    87    5.032077926005e-08
    88   -5.252254714809e-06
    89    7.587398240160e-05
    90   -5.788508153590e-05
    91   -4.456243239982e-05
    92    1.064997766907e-15
    93   -3.117090618501e-04
    94   -3.436981174201e-04
    95   -2.110138479101e-04
    96   -1.618414755883e-15
    97    2.009573548355e-04
    98   -6.309832737574e-04
    99   -5.068095471382e-04
   100   -2.264663143223e-16
   101    2.198684247087e-03
   102    6.660339999538e-04
   103   -4.852094011206e-04
   104   -1.464966208366e-15
   105    5.259091088721e-05
   106   -9.508331378224e-16
   107    6.686656459155e-16
   108   -8.628286309829e-05
   109   -1.839021332010e-04
   110   -5.514845391596e-01
   111   -4.716808876540e-01
   112    1.529672603539e-03
   113    9.206178106077e-04
   114   -1.686531099847e-15
   115   -5.510059200269e-03
   116   -6.170224544115e-04
   117   -3.714907701097e-04
   118    2.521740155150e-15
   119    1.367251250791e-03
   120    1.153051511516e-04
   121    6.828365695730e-05
   122   -3.548500452375e-15
   123   -1.194705839284e-03
   124   -1.207140194551e-05
   125   -1.528176804747e-05
   126    6.216379887888e-15
   127    1.192653057967e-04
   128   -8.892532962144e-16
   129   -9.576865405503e-16
   130    3.743101878555e-05
   131    7.496158368559e-05
   132   -3.267168342895e-07
   133   -2.824064377596e-06
   134    1.088878107534e-05
   135   -6.073059566051e-07
   136   -6.214296395991e-16
   137    4.016958927266e-05
   138   -2.883787425266e-05
   139   -1.550060888995e-06
   140    4.847994155673e-16
   141   -3.636407767039e-04
   142    7.247246882627e-05
   143    3.033377035608e-04
   144   -1.994841813782e-16
   145    9.822884628652e-05
   146    5.998614436856e-04
   147    1.402648898317e-04
   148   -2.449155041587e-15
   149    8.932231685065e-06
   150   -6.002136384632e-16
   151    6.840169579702e-16
   152   -2.146879271397e-05
   153    1.164446015999e-05
   154    2.067716711923e-08
   155   -6.763151012270e-07
   156   -3.408329308559e-07
   157   -2.450082982562e-07
   158    1.236240616241e-15
   159    9.420423438789e-06
   160    1.263178434028e-06
   161    1.826351285206e-06
   162   -2.837156255302e-15
   163   -1.507426040704e-04
   164   -7.204600259581e-05
   165   -2.026234791751e-05
   166    7.121251819162e-15
   167   -2.170237661144e-04
   168    4.951376141547e-05
   169   -9.803562538364e-06
   170   -1.841105996894e-14
   171   -8.756712532764e-07
   172    1.718920912715e-15
   173   -1.397511012578e-16
   174   -6.850984424555e-07
   175    4.125843948736e-07
   176   -9.950368379909e-07
   177   -1.979514621205e-06
   178    3.381539551116e-06
   179    1.593833994639e-05
   180   -6.004982688078e-16
   181    2.978419119086e-05
   182   -1.170533885310e-06
   183   -7.381560977845e-05
   184    5.851023292802e-16
   185   -7.521096976919e-04
   186    6.129898829756e-04
   187   -1.598960458012e-04
   188    4.309904575442e-15
   189   -1.642728009825e-03
   190   -7.079061954496e-05
   191   -1.173218657531e-03
   192   -1.414093506969e-14
   193    6.325725386577e-06
   194   -9.575142171361e-16
   195   -9.788437809022e-16
   196    2.959685757239e-05
   197   -2.348851850776e-05
   198    3.927624839635e-06
   199   -1.319186633494e-04
   200   -1.926908547727e-04
   201   -3.705053548785e-04
   202    1.913568998263e-05
   203   -1.139907452852e-05
   204    7.761530009865e-16
Sym=X
Ene= 0.428797
Spin=Alpha
Occup=0
     1    5.068080204687e-03
     2    8.785732161542e-03
     3   -2.283152334323e-02
     4   -1.426537819840e-02
     5   -2.875782828409e-16
     6   -2.547651633237e-02
     7   -3.971417520533e-02
     8   -2.508604028150e-02
     9    6.746408218949e-15
    10   -7.795232932825e-02
    11   -4.791480777306e-02
    12   -6.083425496821e-02
    13   -1.528367095428e-14
    14   -4.016737645682e-01
    15   -1.014304083698e-01
    16   -1.035564491143e-01
    17   -2.422886964198e-15
    18    3.727866235717e-06
    19    6.344140457651e-15
    20    2.708625363734e-15
    21   -8.040244069284e-03
    22    3.578726864799e-03
    23   -5.416525715065e-04
    24    2.314146521115e-03
    25    1.751650716976e-02
    26    1.848900330041e-03
    27    5.269265227327e-05
    28    7.723924947188e-04
    29    8.727371453335e-16
    30    1.463221277153e-02
    31    1.872749489308e-02
    32    1.014009540000e-02
    33   -3.919286764860e-02
    34   -1.443440683930e-03
    35   -1.265483314706e-03
    36    4.140088032290e-15
    37    7.874295359857e-03
    38    2.144931683700e-02
    39    1.289070544052e-02
    40   -4.067866606766e-02
    41    4.695959470602e-05
    42   -6.950193447889e-04
    43   -1.742533034978e-15
    44   -6.575258820865e-03
    45   -1.131197520236e-02
    46    2.313032058231e-02
    47    3.998496531318e-03
    48    2.532451482135e-15
    49    3.232532887722e-02
    50    3.994911413386e-02
    51    8.558415195308e-03
    52    8.870071750382e-15
    53    6.477755899181e-02
    54    2.512389676303e-02
    55   -1.513251146079e-02
    56   -2.649943072987e-14
    57    7.492349087045e-02
    58    9.119545079729e-03
    59   -1.258054654641e-03
    60   -9.480376573198e-15
    61    1.007835001101e-04
    62    4.013548594647e-15
    63   -6.025614397921e-15
    64    5.561132608809e-03
    65    1.258670025361e-02
    66    1.304197171951e-03
    67    2.191301665333e-03
    68   -2.903390028706e-02
    69   -2.096081992504e-02
    70    1.505861516238e-14
    71   -6.660525169197e-03
    72   -4.252705903276e-02
    73   -3.265521515063e-02
    74    6.649981992367e-15
    75   -1.712500345671e-03
    76   -4.198419056659e-02
    77   -3.696176995315e-02
    78   -8.601062733325e-15
    79    1.368392269865e-02
    80   -1.178687612051e-04
    81   -5.210178973889e-03
    82    1.186229692846e-14
    83    3.411520586083e-04
    84   -9.017863397749e-16
    85   -1.122259881211e-15
    86   -1.475323910149e-03
    87    1.222983892291e-04
    88   -5.588779155977e-03
    89   -9.798694266500e-03
    90    4.749090228977e-04
    91   -2.828122617890e-02
    92    1.203540551191e-15
    93    2.753372830728e-02
    94    4.691438218216e-03
    95   -5.757146875721e-02
    96   -5.757641496903e-16
    97    4.420662792638e-02
    98   -4.794720422101e-02
    99    6.205541495546e-02
   100   -2.080443755236e-14
   101   -2.960542788239e-01
   102   -2.593437434102e-02
   103    1.473479122400e-01
   104    2.000614445358e-14
   105    3.419597660097e-03
   106    1.688543438150e-16
   107   -7.348809666122e-15
   108   -6.390764488756e-02
   109    3.175207783667e-02
   110    1.150120140748e-03
   111    2.070345438819e-03
   112   -1.689505240836e-01
   113    2.803107179119e-01
   114   -1.787056165975e-14
   115   -8.063409185026e-03
   116   -2.161097474234e-01
   117    3.583457945832e-01
   118   -2.093728061319e-15
   119   -3.286041975841e-03
   120   -1.816972348189e-01
   121    2.925156253451e-01
   122    3.745883970869e-14
   123   -8.500051992747e-03
   124   -1.340493233020e-02
   125    3.598594291315e-02
   126   -2.223252659890e-14
   127   -4.991817214086e-05
   128    9.579890604443e-16
   129   -1.118022729636e-15
   130    1.214040250400e-02
   131   -6.846728227037e-03
   132    1.644467022200e-02
   133    2.766021617161e-02
   134   -6.726577177653e-02
   135    2.379027384402e-02
   136   -5.044268793242e-15
   137   -7.818759630990e-02
   138   -9.836314628476e-02
   139    3.004086088438e-02
   140   -1.079867907440e-14
   141   -1.707073624212e-01
   142   -1.108622693195e-01
   143    5.078877392956e-02
   144    1.225065768670e-14
   145   -1.559366443676e-01
   146    4.301937835253e-02
   147    4.577604973797e-02
   148    2.634730544585e-15
   149   -2.041616231540e-03
   150   -2.335879495932e-15
   151   -5.418220775238e-16
   152    1.655180462309e-04
   153   -2.063021955307e-03
   154    3.561291285401e-03
   155    5.995570042776e-03
   156   -1.333211176956e-03
   157   -3.900431566289e-03
   158   -2.845909370909e-15
   159   -1.708496773485e-02
   160   -1.510731344334e-03
   161   -5.311886284962e-03
   162   -3.797946021866e-15
   163   -3.974538792421e-02
   164    7.523879676869e-03
   165   -1.211183262514e-02
   166    1.899786906648e-14
   167    1.455010089513e-02
   168    2.037802290261e-02
   169    4.212292676258e-02
   170    1.040536803599e-14
   171   -5.759257936142e-04
   172    2.440883638800e-15
   173    5.488185540106e-15
   174   -2.956902017316e-03
   175   -7.206632445034e-05
   176   -1.560166806729e-02
   177   -2.580652623328e-02
   178    1.395864752631e-02
   179    6.649273376719e-02
   180   -6.117963421000e-16
   181    6.641169092728e-02
   182    2.333782248127e-02
   183    8.820210247713e-02
   184   -8.004230126254e-15
   185    2.214278573292e-01
   186   -2.813492173373e-02
   187    1.174205286546e-01
   188    1.769527339020e-14
   189    7.384673274809e-01
   190   -1.301697005072e-01
   191    6.631473209069e-02
   192   -8.228006644586e-15
   193    7.048306245925e-04
   194    1.143013805212e-14
   195   -1.105949164702e-15
   196    1.225623847622e-03
   197    5.862731951991e-04
   198   -5.689180727330e-03
   199   -1.272738686914e-02
   200    4.928271789534e-03
   201    4.353915870697e-02
   202    1.304523150186e-03
   203   -5.387303655972e-04
   204   -1.685525328876e-15
[5D]
