[Molden Format]
[Atoms] (Angs)
  C      1    6     -0.00714236     -1.70213747     -0.00000000
  H      2    1     -2.06882847     -1.44022412      0.00000000
  H      3    1     -0.12337987     -2.77567521      0.00000000
  H      4    1      0.04651892      1.98813947     -0.00000000
  C      5    6     -1.21953563      0.40211669      0.00000000
  O      6    8     -2.25921553      1.03043814      0.00000000
  C      7    6      1.28797806      0.34644937     -0.00000000
  O      8    8      2.31273661      1.00537216     -0.00000000
  N      9    7      0.03446295      0.97739857     -0.00000000
  N     10    7     -1.17287765     -0.98229824      0.00000000
  C     11    6      1.20107039     -1.10433419     -0.00000000
  H     12    1      2.11220096     -1.67699125     -0.00000000
[GTO]
1    0
S    6    1.000000
   4.56324000E+03    1.96665000E-03 
   6.82024000E+02    1.52306000E-02 
   1.54973000E+02    7.61269000E-02 
   4.44553000E+01    2.60801000E-01 
   1.30290000E+01    6.16462000E-01 
   1.82773000E+00    2.21006000E-01 
SP   3    1.000000
   2.09642000E+01    1.14660000E-01   4.02487000E-02 
   4.80331000E+00    9.19999000E-01   2.37594000E-01 
   1.45933000E+00   -3.03068000E-03   8.15854000E-01 
SP   1    1.000000
   4.83456000E-01    1.00000000E+00   1.00000000E+00 
SP   1    1.000000
   1.45585000E-01    1.00000000E+00   1.00000000E+00 
SP   1    1.000000
   4.38000000E-02    1.00000000E+00   1.00000000E+00 
D    1    1.000000
   6.26000000E-01    1.00000000E+00 

2    0
S    3    1.000000
   3.38650000E+01    2.54938000E-02 
   5.09479000E+00    1.90373000E-01 
   1.15879000E+00    8.52161000E-01 
S    1    1.000000
   3.25840000E-01    1.00000000E+00 
S    1    1.000000
   1.02741000E-01    1.00000000E+00 
S    1    1.000000
   3.60000000E-02    1.00000000E+00 
P    1    1.000000
   7.50000000E-01    1.00000000E+00 

3    0
S    3    1.000000
   3.38650000E+01    2.54938000E-02 
   5.09479000E+00    1.90373000E-01 
   1.15879000E+00    8.52161000E-01 
S    1    1.000000
   3.25840000E-01    1.00000000E+00 
S    1    1.000000
   1.02741000E-01    1.00000000E+00 
S    1    1.000000
   3.60000000E-02    1.00000000E+00 
P    1    1.000000
   7.50000000E-01    1.00000000E+00 

4    0
S    3    1.000000
   3.38650000E+01    2.54938000E-02 
   5.09479000E+00    1.90373000E-01 
   1.15879000E+00    8.52161000E-01 
S    1    1.000000
   3.25840000E-01    1.00000000E+00 
S    1    1.000000
   1.02741000E-01    1.00000000E+00 
S    1    1.000000
   3.60000000E-02    1.00000000E+00 
P    1    1.000000
   7.50000000E-01    1.00000000E+00 

5    0
S    6    1.000000
   4.56324000E+03    1.96665000E-03 
   6.82024000E+02    1.52306000E-02 
   1.54973000E+02    7.61269000E-02 
   4.44553000E+01    2.60801000E-01 
   1.30290000E+01    6.16462000E-01 
   1.82773000E+00    2.21006000E-01 
SP   3    1.000000
   2.09642000E+01    1.14660000E-01   4.02487000E-02 
   4.80331000E+00    9.19999000E-01   2.37594000E-01 
   1.45933000E+00   -3.03068000E-03   8.15854000E-01 
SP   1    1.000000
   4.83456000E-01    1.00000000E+00   1.00000000E+00 
SP   1    1.000000
   1.45585000E-01    1.00000000E+00   1.00000000E+00 
SP   1    1.000000
   4.38000000E-02    1.00000000E+00   1.00000000E+00 
D    1    1.000000
   6.26000000E-01    1.00000000E+00 

6    0
S    6    1.000000
   8.58850000E+03    1.89515000E-03 
   1.29723000E+03    1.43859000E-02 
   2.99296000E+02    7.07320000E-02 
   8.73771000E+01    2.40001000E-01 
   2.56789000E+01    5.94797000E-01 
   3.74004000E+00    2.80802000E-01 
SP   3    1.000000
   4.21175000E+01    1.13889000E-01   3.65114000E-02 
   9.62837000E+00    9.20811000E-01   2.37153000E-01 
   2.85332000E+00   -3.27447000E-03   8.19702000E-01 
SP   1    1.000000
   9.05661000E-01    1.00000000E+00   1.00000000E+00 
SP   1    1.000000
   2.55611000E-01    1.00000000E+00   1.00000000E+00 
SP   1    1.000000
   8.45000000E-02    1.00000000E+00   1.00000000E+00 
D    1    1.000000
   1.29200000E+00    1.00000000E+00 

7    0
S    6    1.000000
   4.56324000E+03    1.96665000E-03 
   6.82024000E+02    1.52306000E-02 
   1.54973000E+02    7.61269000E-02 
   4.44553000E+01    2.60801000E-01 
   1.30290000E+01    6.16462000E-01 
   1.82773000E+00    2.21006000E-01 
SP   3    1.000000
   2.09642000E+01    1.14660000E-01   4.02487000E-02 
   4.80331000E+00    9.19999000E-01   2.37594000E-01 
   1.45933000E+00   -3.03068000E-03   8.15854000E-01 
SP   1    1.000000
   4.83456000E-01    1.00000000E+00   1.00000000E+00 
SP   1    1.000000
   1.45585000E-01    1.00000000E+00   1.00000000E+00 
SP   1    1.000000
   4.38000000E-02    1.00000000E+00   1.00000000E+00 
D    1    1.000000
   6.26000000E-01    1.00000000E+00 

8    0
S    6    1.000000
   8.58850000E+03    1.89515000E-03 
   1.29723000E+03    1.43859000E-02 
   2.99296000E+02    7.07320000E-02 
   8.73771000E+01    2.40001000E-01 
   2.56789000E+01    5.94797000E-01 
   3.74004000E+00    2.80802000E-01 
SP   3    1.000000
   4.21175000E+01    1.13889000E-01   3.65114000E-02 
   9.62837000E+00    9.20811000E-01   2.37153000E-01 
   2.85332000E+00   -3.27447000E-03   8.19702000E-01 
SP   1    1.000000
   9.05661000E-01    1.00000000E+00   1.00000000E+00 
SP   1    1.000000
   2.55611000E-01    1.00000000E+00   1.00000000E+00 
SP   1    1.000000
   8.45000000E-02    1.00000000E+00   1.00000000E+00 
D    1    1.000000
   1.29200000E+00    1.00000000E+00 

9    0
S    6    1.000000
   6.29348000E+03    1.96979000E-03 
   9.49044000E+02    1.49613000E-02 
   2.18776000E+02    7.35006000E-02 
   6.36916000E+01    2.48937000E-01 
   1.88282000E+01    6.02460000E-01 
   2.72023000E+00    2.56202000E-01 
SP   3    1.000000
   3.06331000E+01    1.11906000E-01   3.83119000E-02 
   7.02614000E+00    9.21666000E-01   2.37403000E-01 
   2.11205000E+00   -2.56919000E-03   8.17592000E-01 
SP   1    1.000000
   6.84009000E-01    1.00000000E+00   1.00000000E+00 
SP   1    1.000000
   2.00878000E-01    1.00000000E+00   1.00000000E+00 
SP   1    1.000000
   6.39000000E-02    1.00000000E+00   1.00000000E+00 
D    1    1.000000
   9.13000000E-01    1.00000000E+00 

10    0
S    6    1.000000
   6.29348000E+03    1.96979000E-03 
   9.49044000E+02    1.49613000E-02 
   2.18776000E+02    7.35006000E-02 
   6.36916000E+01    2.48937000E-01 
   1.88282000E+01    6.02460000E-01 
   2.72023000E+00    2.56202000E-01 
SP   3    1.000000
   3.06331000E+01    1.11906000E-01   3.83119000E-02 
   7.02614000E+00    9.21666000E-01   2.37403000E-01 
   2.11205000E+00   -2.56919000E-03   8.17592000E-01 
SP   1    1.000000
   6.84009000E-01    1.00000000E+00   1.00000000E+00 
SP   1    1.000000
   2.00878000E-01    1.00000000E+00   1.00000000E+00 
SP   1    1.000000
   6.39000000E-02    1.00000000E+00   1.00000000E+00 
D    1    1.000000
   9.13000000E-01    1.00000000E+00 

11    0
S    6    1.000000
   4.56324000E+03    1.96665000E-03 
   6.82024000E+02    1.52306000E-02 
   1.54973000E+02    7.61269000E-02 
   4.44553000E+01    2.60801000E-01 
   1.30290000E+01    6.16462000E-01 
   1.82773000E+00    2.21006000E-01 
SP   3    1.000000
   2.09642000E+01    1.14660000E-01   4.02487000E-02 
   4.80331000E+00    9.19999000E-01   2.37594000E-01 
   1.45933000E+00   -3.03068000E-03   8.15854000E-01 
SP   1    1.000000
   4.83456000E-01    1.00000000E+00   1.00000000E+00 
SP   1    1.000000
   1.45585000E-01    1.00000000E+00   1.00000000E+00 
SP   1    1.000000
   4.38000000E-02    1.00000000E+00   1.00000000E+00 
D    1    1.000000
   6.26000000E-01    1.00000000E+00 

12    0
S    3    1.000000
   3.38650000E+01    2.54938000E-02 
   5.09479000E+00    1.90373000E-01 
   1.15879000E+00    8.52161000E-01 
S    1    1.000000
   3.25840000E-01    1.00000000E+00 
S    1    1.000000
   1.02741000E-01    1.00000000E+00 
S    1    1.000000
   3.60000000E-02    1.00000000E+00 
P    1    1.000000
   7.50000000E-01    1.00000000E+00 

[MO]
Sym=X
Ene= -0.130074
Spin=Alpha
Occup=1
     1    5.827198477212e-06
     2    9.230409294322e-06
     3    1.707451101947e-06
     4    2.068223995977e-05
     5    5.369480869405e-16
     6   -2.499869187548e-05
     7   -1.041922490603e-05
     8    3.343626808761e-05
     9   -9.124324202850e-16
    10   -7.190840504442e-04
    11   -1.464763112132e-04
    12   -1.849864008389e-04
    13    5.642275960994e-15
    14   -9.075378615402e-05
    15    2.665325290756e-04
    16   -1.773364801702e-04
    17   -2.165159562867e-14
    18    3.692067991404e-06
    19    8.756625158502e-16
    20    9.349821766196e-16
    21   -1.141775172802e-05
    22    6.108278867614e-06
    23    5.799146076293e-06
    24    3.285679053314e-05
    25    1.075098821355e-04
    26    3.692029757460e-04
    27   -8.408213880400e-06
    28   -2.888012060267e-06
    29   -6.480393991753e-16
    30   -2.889168951599e-06
    31    1.066689754835e-05
    32   -7.791701031774e-06
    33    3.071892723245e-04
    34    3.755207141851e-06
    35   -4.422559836758e-06
    36    9.263566372847e-16
    37    4.692414911770e-06
    38    7.913468222596e-05
    39    1.226795769496e-04
    40    9.670916854010e-05
    41   -1.039586118988e-05
    42   -5.289909861063e-06
    43    4.393940989536e-16
    44   -3.914546994857e-07
    45    2.467495754628e-06
    46    7.908055316268e-06
    47    6.498607953299e-07
    48   -9.110814412663e-16
    49   -2.137668066666e-05
    50   -3.168178675037e-05
    51   -7.818425885348e-07
    52    2.276166313406e-15
    53   -2.663322162934e-04
    54   -1.224462426897e-04
    55    3.157914280938e-06
    56   -1.857820892642e-15
    57   -2.750502633421e-04
    58    4.188282952848e-05
    59   -1.020088742640e-04
    60   -9.993829482853e-15
    61    7.406326241895e-06
    62   -3.296714326736e-16
    63    1.364307853631e-15
    64   -6.726153161623e-06
    65   -5.041146916560e-06
    66    1.245643307231e-05
    67    1.314834469199e-05
    68    4.222367427197e-06
    69    9.032896065269e-07
    70    2.305353718995e-16
    71   -1.827701492559e-05
    72    4.403586392549e-07
    73    2.520404931483e-06
    74    2.156799886047e-16
    75    1.305613176773e-05
    76    2.126405943813e-05
    77    4.185568360747e-06
    78   -2.435206912962e-15
    79   -2.298337974347e-04
    80   -1.225930218930e-04
    81    2.085074838493e-05
    82    3.119619241075e-15
    83    8.536705605974e-07
    84   -3.390931725393e-16
    85    2.082882691772e-16
    86    2.954741095122e-07
    87    6.143349734426e-07
    88    7.209082430816e-06
    89   -7.236416254196e-05
    90    5.791738754982e-05
    91    5.024185040623e-05
    92   -1.062557573600e-15
    93    2.975142981954e-04
    94    3.448775725851e-04
    95    2.197321093069e-04
    96    1.620354334383e-15
    97   -2.117197163594e-04
    98    6.094952636772e-04
    99    5.079091717979e-04
   100    2.557031621676e-16
   101   -2.025463719680e-03
   102   -6.055785650696e-04
   103    4.693199081054e-04
   104    1.656806571828e-15
   105   -5.130385120950e-05
   106    9.500659400271e-16
   107   -6.677198497879e-16
   108    8.690578928392e-05
   109    1.858907920681e-04
   110    5.514850188580e-01
   111    4.716817797236e-01
   112   -1.530183447471e-03
   113   -9.244112342554e-04
   114    1.685117823891e-15
   115    5.506501980372e-03
   116    6.161560070038e-04
   117    3.657220294620e-04
   118   -2.526971960163e-15
   119   -1.365555302726e-03
   120   -1.141216990720e-04
   121   -7.531093193388e-05
   122    3.556625272349e-15
   123    1.194403223667e-03
   124   -4.690244664751e-06
   125   -8.298606283384e-07
   126   -6.292221199828e-15
   127   -1.190641368332e-04
   128    8.895852843620e-16
   129    9.560866252581e-16
   130   -3.736005589261e-05
   131   -7.518449493340e-05
   132    4.059740805730e-06
   133    9.289183337428e-06
   134   -7.337942129132e-06
   135    2.193311611730e-06
   136    6.199520317584e-16
   137   -6.066617145847e-05
   138    3.432417924509e-05
   139    4.752398029774e-06
   140   -4.874730439092e-16
   141    3.039965407827e-04
   142   -6.051578592552e-05
   143   -2.886379985904e-04
   144    1.863277444505e-16
   145   -2.787922569421e-04
   146   -5.877546019193e-04
   147   -1.233834065040e-04
   148    2.477832034577e-15
   149   -8.217373261669e-06
   150    6.003923557214e-16
   151   -6.836936793532e-16
   152    2.045214927207e-05
   153   -1.129763984438e-05
   154    8.076794931731e-06
   155    1.466146771436e-05
   156    1.430967202409e-05
   157    8.973909244877e-06
   158   -1.235002685330e-15
   159   -5.451443516088e-05
   160    2.047115993768e-05
   161    1.130425351262e-05
   162    2.837260920492e-15
   163    2.068800584962e-05
   164    1.037237179947e-04
   165    3.660154733891e-05
   166   -7.099061284056e-15
   167   -8.544675998117e-05
   168    2.709062680268e-05
   169   -1.401602615812e-05
   170    1.833048310730e-14
   171    2.708441168910e-06
   172   -1.719573885610e-15
   173    1.393059673099e-16
   174    3.479756135490e-06
   175    2.934667764199e-06
   176    4.763843639594e-06
   177    8.475798047550e-06
   178   -8.363138642531e-06
   179   -1.220454238340e-05
   180    5.985339965874e-16
   181   -5.016122839545e-05
   182   -6.968039428158e-06
   183    7.835387224351e-05
   184   -5.935634107552e-16
   185    6.759239865349e-04
   186   -6.144200686287e-04
   187    1.597605517686e-04
   188   -4.315701564720e-15
   189    1.281201348535e-03
   190    1.706127717218e-05
   191    1.016179449678e-03
   192    1.390926357268e-14
   193   -4.382464360609e-06
   194    9.595092351572e-16
   195    9.783503422966e-16
   196   -2.578178149329e-05
   197    1.934931214271e-05
   198   -1.005971703737e-06
   199    1.412427391819e-04
   200    2.289910897610e-04
   201    5.003266477004e-04
   202   -1.719824553079e-05
   203    9.875968701652e-06
   204   -7.758478889715e-16
Sym=X
Ene= 0.130074
Spin=Alpha
Occup=0
     1   -1.060208190435e-15
     2   -1.496450810845e-15
     3   -4.929339764400e-15
     4   -4.391758930414e-15
     5    8.816121208138e-02
     6    8.763111113968e-15
     7    7.532543841381e-15
     8   -1.903482615959e-14
     9    1.476684232258e-01
    10   -1.941794378401e-13
    11    3.120429189806e-14
    12   -1.329760183632e-13
    13    1.525987729685e-01
    14   -3.089980029181e-12
    15   -5.169327382106e-13
    16   -8.195472370025e-13
    17    2.140766570661e-02
    18   -1.971871902261e-16
    19    3.572475107090e-02
    20    2.270568660030e-03
    21    1.092666311535e-15
    22    5.138155827267e-15
    23    2.841785689967e-15
    24    8.775764292079e-14
    25    1.381008148868e-13
    26    1.530139980111e-13
    27    3.982159734480e-15
    28   -5.295551179394e-16
    29   -1.399718848116e-02
    30    1.875804179208e-15
    31   -4.372075711726e-14
    32    1.924492614474e-14
    33   -1.978326716237e-13
    34   -1.945099006435e-15
    35   -1.827161965383e-15
    36    6.499231833515e-03
    37   -3.306686693575e-15
    38   -6.679505619678e-14
    39    6.604901533481e-14
    40   -3.024256327978e-13
    41   -1.632119944171e-15
    42    2.887719549640e-15
    43   -2.554074407565e-04
    44   -2.701129565443e-16
    45   -7.192491809483e-16
    46   -1.459871829554e-15
    47    1.061610735974e-15
    48   -1.560217424589e-02
    49    1.216127982997e-14
    50    5.637906304206e-15
    51    7.181594036487e-15
    52   -3.122744708672e-02
    53   -4.182217276605e-14
    54   -5.434275104308e-14
    55   -9.984976250773e-14
    56    4.864339877301e-03
    57    6.377647029283e-13
    58    2.430404762338e-13
    59    1.056351493155e-13
    60    2.497209117460e-02
    61    2.923835439067e-15
    62   -1.925195882033e-02
    63    3.367982526755e-02
    64    5.869394389865e-15
    65    5.281174664420e-15
    66   -2.326467133841e-16
    67    1.085487515526e-15
    68    5.553604733102e-16
    69    3.458391378577e-15
    70    8.731767931093e-02
    71   -1.620197524778e-15
    72   -6.854938456234e-15
    73   -9.119997632642e-15
    74    1.319467684837e-01
    75   -7.786456239144e-15
    76    2.951623486209e-14
    77    5.453660914239e-14
    78    1.350720596780e-01
    79    4.835729333739e-14
    80   -1.917976532000e-14
    81   -1.024873153434e-13
    82    2.883364426489e-02
    83   -3.087049342760e-16
    84    4.469276704932e-03
    85   -1.554265318205e-03
    86    9.596475566872e-16
    87   -1.452427715503e-15
    88    3.791682235720e-16
    89   -1.187397703493e-15
    90   -3.222978256591e-15
    91    3.061630618822e-15
    92    1.881469807986e-02
    93   -1.003610707234e-14
    94   -1.747870967135e-15
    95    1.188908143788e-15
    96    3.646263213403e-02
    97    2.435550986303e-13
    98   -3.224071765861e-14
    99   -8.233972292001e-14
   100    1.691068607202e-02
   101   -2.530288359260e-12
   102   -2.947499257755e-13
   103    8.910906102272e-13
   104   -3.186733268586e-02
   105   -5.401859307557e-15
   106   -1.585234766909e-02
   107   -3.294028186552e-02
   108    5.999155626265e-15
   109    8.674094857237e-16
   110    2.169077425607e-17
   111    2.615393138087e-16
   112    6.447056663903e-15
   113   -8.145144358715e-15
   114   -1.349149029070e-01
   115    1.135372825258e-15
   116    8.219342268992e-15
   117   -9.159619125056e-15
   118   -1.683675269555e-01
   119   -1.308287244705e-14
   120   -3.039806548230e-14
   121    5.200997950758e-14
   122   -1.330703908634e-01
   123    8.625109408980e-14
   124    1.262048364383e-13
   125   -2.275118817536e-14
   126   -2.547865458149e-02
   127    6.254654861067e-16
   128    4.957288196365e-03
   129    1.448213954402e-03
   130   -3.660502616650e-16
   131   -1.302986379412e-15
   132   -2.866361853335e-16
   133   -1.043110304512e-15
   134   -2.350414778852e-15
   135   -3.636673256051e-15
   136   -6.741846315976e-03
   137    4.708932500599e-15
   138    3.290724023417e-15
   139   -2.400251867877e-14
   140   -1.023162775198e-02
   141    7.854295593114e-14
   142   -2.351920005852e-14
   143    1.651649635080e-13
   144   -1.746361849877e-02
   145   -7.532622196903e-13
   146    4.241601005023e-14
   147    6.431974052977e-14
   148    3.789815653938e-04
   149   -3.844705628807e-15
   150    1.569455251102e-03
   151   -2.721348892487e-04
   152    3.198083897306e-16
   153   -1.004079819631e-17
   154   -4.299589381319e-16
   155    6.317462172316e-16
   156   -3.011009198184e-15
   157   -3.043737706758e-15
   158   -1.494329020418e-01
   159    9.686933370299e-16
   160   -2.474698384498e-14
   161   -2.981718163046e-15
   162   -2.351745738141e-01
   163   -6.172880394855e-14
   164    2.183337084952e-13
   165    1.563169811567e-14
   166   -2.882473009671e-01
   167    4.931239230599e-13
   168    3.308376494089e-13
   169    9.003341495965e-14
   170   -9.224155189784e-02
   171    1.990577011405e-15
   172    3.873425362249e-03
   173   -7.238328139299e-03
   174   -3.292535901893e-15
   175   -2.864924813238e-15
   176   -1.611265034247e-15
   177   -6.902763922481e-16
   178   -2.014475470244e-15
   179   -6.148055956872e-16
   180    1.563053500643e-01
   181    1.211260314149e-14
   182   -1.481144997986e-14
   183   -8.258007555002e-15
   184    2.595859601574e-01
   185   -5.635201661150e-14
   186    2.397612461331e-15
   187   -3.340935859703e-14
   188    2.608613256132e-01
   189    5.183415190632e-12
   190   -4.526811674688e-13
   191    7.343224265360e-13
   192    4.973511365339e-02
   193    7.525893684818e-15
   194   -1.265655383424e-02
   195    4.412603446946e-03
   196   -9.341068634583e-16
   197   -3.037222808882e-16
   198   -5.151861512900e-15
   199    3.588777285501e-14
   200   -1.645284732833e-13
   201    2.515233325401e-13
   202   -5.843356480571e-15
   203    1.119877196419e-15
   204    1.195222953947e-02
[5D]
