[Molden Format]
[Atoms] (Angs)
  C      1    6     -0.00714236     -1.70213747     -0.00000000
  H      2    1     -2.06882847     -1.44022412      0.00000000
  H      3    1     -0.12337987     -2.77567521      0.00000000
  H      4    1      0.04651892      1.98813947     -0.00000000
  C      5    6     -1.21953563      0.40211669      0.00000000
  O      6    8     -2.25921553      1.03043814      0.00000000
  C      7    6      1.28797806      0.34644937     -0.00000000
  O      8    8      2.31273661      1.00537216     -0.00000000
  N      9    7      0.03446295      0.97739857     -0.00000000
  N     10    7     -1.17287765     -0.98229824      0.00000000
  C     11    6      1.20107039     -1.10433419     -0.00000000
  H     12    1      2.11220096     -1.67699125     -0.00000000
[GTO]
1    0
S    6    1.000000
   4.56324000E+03    1.96665000E-03 
   6.82024000E+02    1.52306000E-02 
   1.54973000E+02    7.61269000E-02 
   4.44553000E+01    2.60801000E-01 
   1.30290000E+01    6.16462000E-01 
   1.82773000E+00    2.21006000E-01 
SP   3    1.000000
   2.09642000E+01    1.14660000E-01   4.02487000E-02 
   4.80331000E+00    9.19999000E-01   2.37594000E-01 
   1.45933000E+00   -3.03068000E-03   8.15854000E-01 
SP   1    1.000000
   4.83456000E-01    1.00000000E+00   1.00000000E+00 
SP   1    1.000000
   1.45585000E-01    1.00000000E+00   1.00000000E+00 
SP   1    1.000000
   4.38000000E-02    1.00000000E+00   1.00000000E+00 
D    1    1.000000
   6.26000000E-01    1.00000000E+00 

2    0
S    3    1.000000
   3.38650000E+01    2.54938000E-02 
   5.09479000E+00    1.90373000E-01 
   1.15879000E+00    8.52161000E-01 
S    1    1.000000
   3.25840000E-01    1.00000000E+00 
S    1    1.000000
   1.02741000E-01    1.00000000E+00 
S    1    1.000000
   3.60000000E-02    1.00000000E+00 
P    1    1.000000
   7.50000000E-01    1.00000000E+00 

3    0
S    3    1.000000
   3.38650000E+01    2.54938000E-02 
   5.09479000E+00    1.90373000E-01 
   1.15879000E+00    8.52161000E-01 
S    1    1.000000
   3.25840000E-01    1.00000000E+00 
S    1    1.000000
   1.02741000E-01    1.00000000E+00 
S    1    1.000000
   3.60000000E-02    1.00000000E+00 
P    1    1.000000
   7.50000000E-01    1.00000000E+00 

4    0
S    3    1.000000
   3.38650000E+01    2.54938000E-02 
   5.09479000E+00    1.90373000E-01 
   1.15879000E+00    8.52161000E-01 
S    1    1.000000
   3.25840000E-01    1.00000000E+00 
S    1    1.000000
   1.02741000E-01    1.00000000E+00 
S    1    1.000000
   3.60000000E-02    1.00000000E+00 
P    1    1.000000
   7.50000000E-01    1.00000000E+00 

5    0
S    6    1.000000
   4.56324000E+03    1.96665000E-03 
   6.82024000E+02    1.52306000E-02 
   1.54973000E+02    7.61269000E-02 
   4.44553000E+01    2.60801000E-01 
   1.30290000E+01    6.16462000E-01 
   1.82773000E+00    2.21006000E-01 
SP   3    1.000000
   2.09642000E+01    1.14660000E-01   4.02487000E-02 
   4.80331000E+00    9.19999000E-01   2.37594000E-01 
   1.45933000E+00   -3.03068000E-03   8.15854000E-01 
SP   1    1.000000
   4.83456000E-01    1.00000000E+00   1.00000000E+00 
SP   1    1.000000
   1.45585000E-01    1.00000000E+00   1.00000000E+00 
SP   1    1.000000
   4.38000000E-02    1.00000000E+00   1.00000000E+00 
D    1    1.000000
   6.26000000E-01    1.00000000E+00 

6    0
S    6    1.000000
   8.58850000E+03    1.89515000E-03 
   1.29723000E+03    1.43859000E-02 
   2.99296000E+02    7.07320000E-02 
   8.73771000E+01    2.40001000E-01 
   2.56789000E+01    5.94797000E-01 
   3.74004000E+00    2.80802000E-01 
SP   3    1.000000
   4.21175000E+01    1.13889000E-01   3.65114000E-02 
   9.62837000E+00    9.20811000E-01   2.37153000E-01 
   2.85332000E+00   -3.27447000E-03   8.19702000E-01 
SP   1    1.000000
   9.05661000E-01    1.00000000E+00   1.00000000E+00 
SP   1    1.000000
   2.55611000E-01    1.00000000E+00   1.00000000E+00 
SP   1    1.000000
   8.45000000E-02    1.00000000E+00   1.00000000E+00 
D    1    1.000000
   1.29200000E+00    1.00000000E+00 

7    0
S    6    1.000000
   4.56324000E+03    1.96665000E-03 
   6.82024000E+02    1.52306000E-02 
   1.54973000E+02    7.61269000E-02 
   4.44553000E+01    2.60801000E-01 
   1.30290000E+01    6.16462000E-01 
   1.82773000E+00    2.21006000E-01 
SP   3    1.000000
   2.09642000E+01    1.14660000E-01   4.02487000E-02 
   4.80331000E+00    9.19999000E-01   2.37594000E-01 
   1.45933000E+00   -3.03068000E-03   8.15854000E-01 
SP   1    1.000000
   4.83456000E-01    1.00000000E+00   1.00000000E+00 
SP   1    1.000000
   1.45585000E-01    1.00000000E+00   1.00000000E+00 
SP   1    1.000000
   4.38000000E-02    1.00000000E+00   1.00000000E+00 
D    1    1.000000
   6.26000000E-01    1.00000000E+00 

8    0
S    6    1.000000
   8.58850000E+03    1.89515000E-03 
   1.29723000E+03    1.43859000E-02 
   2.99296000E+02    7.07320000E-02 
   8.73771000E+01    2.40001000E-01 
   2.56789000E+01    5.94797000E-01 
   3.74004000E+00    2.80802000E-01 
SP   3    1.000000
   4.21175000E+01    1.13889000E-01   3.65114000E-02 
   9.62837000E+00    9.20811000E-01   2.37153000E-01 
   2.85332000E+00   -3.27447000E-03   8.19702000E-01 
SP   1    1.000000
   9.05661000E-01    1.00000000E+00   1.00000000E+00 
SP   1    1.000000
   2.55611000E-01    1.00000000E+00   1.00000000E+00 
SP   1    1.000000
   8.45000000E-02    1.00000000E+00   1.00000000E+00 
D    1    1.000000
   1.29200000E+00    1.00000000E+00 

9    0
S    6    1.000000
   6.29348000E+03    1.96979000E-03 
   9.49044000E+02    1.49613000E-02 
   2.18776000E+02    7.35006000E-02 
   6.36916000E+01    2.48937000E-01 
   1.88282000E+01    6.02460000E-01 
   2.72023000E+00    2.56202000E-01 
SP   3    1.000000
   3.06331000E+01    1.11906000E-01   3.83119000E-02 
   7.02614000E+00    9.21666000E-01   2.37403000E-01 
   2.11205000E+00   -2.56919000E-03   8.17592000E-01 
SP   1    1.000000
   6.84009000E-01    1.00000000E+00   1.00000000E+00 
SP   1    1.000000
   2.00878000E-01    1.00000000E+00   1.00000000E+00 
SP   1    1.000000
   6.39000000E-02    1.00000000E+00   1.00000000E+00 
D    1    1.000000
   9.13000000E-01    1.00000000E+00 

10    0
S    6    1.000000
   6.29348000E+03    1.96979000E-03 
   9.49044000E+02    1.49613000E-02 
   2.18776000E+02    7.35006000E-02 
   6.36916000E+01    2.48937000E-01 
   1.88282000E+01    6.02460000E-01 
   2.72023000E+00    2.56202000E-01 
SP   3    1.000000
   3.06331000E+01    1.11906000E-01   3.83119000E-02 
   7.02614000E+00    9.21666000E-01   2.37403000E-01 
   2.11205000E+00   -2.56919000E-03   8.17592000E-01 
SP   1    1.000000
   6.84009000E-01    1.00000000E+00   1.00000000E+00 
SP   1    1.000000
   2.00878000E-01    1.00000000E+00   1.00000000E+00 
SP   1    1.000000
   6.39000000E-02    1.00000000E+00   1.00000000E+00 
D    1    1.000000
   9.13000000E-01    1.00000000E+00 

11    0
S    6    1.000000
   4.56324000E+03    1.96665000E-03 
   6.82024000E+02    1.52306000E-02 
   1.54973000E+02    7.61269000E-02 
   4.44553000E+01    2.60801000E-01 
   1.30290000E+01    6.16462000E-01 
   1.82773000E+00    2.21006000E-01 
SP   3    1.000000
   2.09642000E+01    1.14660000E-01   4.02487000E-02 
   4.80331000E+00    9.19999000E-01   2.37594000E-01 
   1.45933000E+00   -3.03068000E-03   8.15854000E-01 
SP   1    1.000000
   4.83456000E-01    1.00000000E+00   1.00000000E+00 
SP   1    1.000000
   1.45585000E-01    1.00000000E+00   1.00000000E+00 
SP   1    1.000000
   4.38000000E-02    1.00000000E+00   1.00000000E+00 
D    1    1.000000
   6.26000000E-01    1.00000000E+00 

12    0
S    3    1.000000
   3.38650000E+01    2.54938000E-02 
   5.09479000E+00    1.90373000E-01 
   1.15879000E+00    8.52161000E-01 
S    1    1.000000
   3.25840000E-01    1.00000000E+00 
S    1    1.000000
   1.02741000E-01    1.00000000E+00 
S    1    1.000000
   3.60000000E-02    1.00000000E+00 
P    1    1.000000
   7.50000000E-01    1.00000000E+00 

[MO]
Sym=X
Ene= -0.006296
Spin=Alpha
Occup=1
     1    6.822026037209e-08
     2    1.099049161392e-06
     3   -3.205256819617e-06
     4   -3.380450777095e-07
     5   -5.355860554403e-16
     6   -1.074843965699e-05
     7    1.018093210620e-05
     8   -1.133223622891e-06
     9    9.183414692561e-16
    10    6.216214940305e-04
    11    1.369059449125e-04
    12    2.582953176021e-04
    13   -5.642966774566e-15
    14   -8.055981573932e-05
    15   -3.154596128160e-04
    16    6.116946961125e-04
    17    2.185614403127e-14
    18   -9.277824993142e-07
    19   -8.767969802545e-16
    20   -9.371720012914e-16
    21    3.944004944768e-06
    22   -4.566670598952e-06
    23   -1.030083813937e-07
    24   -5.957862784834e-06
    25    3.580820065815e-05
    26   -7.432172912786e-05
    27    3.364530937045e-06
    28   -9.696227718680e-07
    29    6.477104206621e-16
    30    2.514851726755e-06
    31   -3.855208274983e-06
    32    1.320101386894e-04
    33    3.102290351058e-04
    34   -5.768886209487e-06
    35   -6.280107939999e-07
    36   -9.248134119838e-16
    37   -2.099644369204e-06
    38   -7.418698968603e-05
    39   -1.044097987547e-04
    40   -9.231994308177e-05
    41    1.051770823702e-05
    42    6.770796399872e-06
    43   -4.392619814932e-16
    44    6.617439966913e-07
    45   -1.742275134845e-06
    46   -7.017193430132e-06
    47   -3.560593130958e-07
    48    9.116531603869e-16
    49    1.097216309111e-05
    50    3.174614320697e-05
    51    3.086091151361e-06
    52   -2.277394465766e-15
    53    3.114977290293e-04
    54    1.470966638810e-04
    55   -1.399639389565e-05
    56    1.859121254044e-15
    57    2.665053837486e-04
    58    4.851676808607e-06
    59    1.807559609670e-04
    60    9.854881334657e-15
    61   -4.553371677061e-06
    62    3.283945203306e-16
    63   -1.362772546104e-15
    64    6.984465533175e-06
    65    1.181427992015e-07
    66   -6.507188189586e-06
    67   -6.603398043031e-06
    68   -4.546663418678e-07
    69    2.563019285112e-07
    70   -2.291905165139e-16
    71    8.798623663693e-06
    72    4.305239071481e-06
    73   -6.559178512049e-07
    74   -2.129373865823e-16
    75   -2.843643724614e-05
    76   -1.765437087753e-05
    77    2.347434936280e-07
    78    2.433144390933e-15
    79    2.505917980918e-04
    80    1.390595093955e-04
    81   -4.495297785792e-05
    82   -3.064576055789e-15
    83   -3.440755161122e-07
    84    3.382999501050e-16
    85   -2.090588056360e-16
    86   -3.853562062224e-07
    87    4.959165078326e-08
    88   -5.252250151689e-06
    89    7.587397466572e-05
    90   -5.788503705434e-05
    91   -4.456245082367e-05
    92    1.065000184908e-15
    93   -3.117090116933e-04
    94   -3.436983115974e-04
    95   -2.110137348470e-04
    96   -1.618442427843e-15
    97    2.009594546184e-04
    98   -6.309843057917e-04
    99   -5.068090587607e-04
   100   -2.264275970121e-16
   101    2.198676299951e-03
   102    6.660327664834e-04
   103   -4.852021797773e-04
   104   -1.464778744099e-15
   105    5.259087878469e-05
   106   -9.508329437872e-16
   107    6.686653404964e-16
   108   -8.628277984589e-05
   109   -1.839021557542e-04
   110   -5.514845391224e-01
   111   -4.716808876307e-01
   112    1.529672600566e-03
   113    9.206178163296e-04
   114   -1.686546540270e-15
   115   -5.510059119689e-03
   116   -6.170224669320e-04
   117   -3.714907866580e-04
   118    2.521752466349e-15
   119    1.367250862845e-03
   120    1.153052932669e-04
   121    6.828372740415e-05
   122   -3.548481122909e-15
   123   -1.194703872639e-03
   124   -1.207230123182e-05
   125   -1.528253044700e-05
   126    6.216304928072e-15
   127    1.192653029088e-04
   128   -8.892583094158e-16
   129   -9.576979434270e-16
   130    3.743101084436e-05
   131    7.496157992204e-05
   132   -3.267197325133e-07
   133   -2.824081362944e-06
   134    1.088866497851e-05
   135   -6.072933990416e-07
   136   -6.214347154470e-16
   137    4.016987988967e-05
   138   -2.883754254725e-05
   139   -1.550123716464e-06
   140    4.847992491862e-16
   141   -3.636439406926e-04
   142    7.247197119082e-05
   143    3.033403605084e-04
   144   -1.994619301304e-16
   145    9.822871538202e-05
   146    5.998556885467e-04
   147    1.402657866315e-04
   148   -2.449283800223e-15
   149    8.932307054308e-06
   150   -6.002159193198e-16
   151    6.840245908080e-16
   152   -2.146903286002e-05
   153    1.164438742009e-05
   154    2.067328236125e-08
   155   -6.763307601472e-07
   156   -3.408878892183e-07
   157   -2.449071313296e-07
   158    1.236247579224e-15
   159    9.420696035812e-06
   160    1.263345160919e-06
   161    1.826083081198e-06
   162   -2.837157191526e-15
   163   -1.507454777316e-04
   164   -7.204841737377e-05
   165   -2.026309475872e-05
   166    7.121260933634e-15
   167   -2.170234479432e-04
   168    4.951066642977e-05
   169   -9.799716652880e-06
   170   -1.841114071475e-14
   171   -8.755906256790e-07
   172    1.718923591378e-15
   173   -1.397539810242e-16
   174   -6.849061870847e-07
   175    4.127170812257e-07
   176   -9.950381789638e-07
   177   -1.979507991570e-06
   178    3.381526358946e-06
   179    1.593834790666e-05
   180   -6.004838450461e-16
   181    2.978406248226e-05
   182   -1.170465766148e-06
   183   -7.381568046354e-05
   184    5.850969743136e-16
   185   -7.521090493395e-04
   186    6.129893711916e-04
   187   -1.598957443776e-04
   188    4.309912982937e-15
   189   -1.642696981608e-03
   190   -7.079540640078e-05
   191   -1.173215513762e-03
   192   -1.414109533487e-14
   193    6.325670942831e-06
   194   -9.575139182549e-16
   195   -9.788399481841e-16
   196    2.959685738040e-05
   197   -2.348848588332e-05
   198    3.927610968885e-06
   199   -1.319185740646e-04
   200   -1.926906347143e-04
   201   -3.705034698195e-04
   202    1.913569505370e-05
   203   -1.139907899069e-05
   204    7.761444519581e-16
Sym=X
Ene= 0.006296
Spin=Alpha
Occup=0
     1   -5.617923242462e-03
     2   -9.577358700525e-03
     3    3.377088641523e-02
     4    2.159440561123e-02
     5    1.878472317995e-15
     6    2.795050941935e-02
     7    5.443238709113e-02
     8    3.549982582041e-02
     9   -7.212860486130e-15
    10    6.402214195179e-02
    11    5.155186832527e-02
    12    7.140073603798e-02
    13    1.757102501988e-14
    14    2.676428689698e-01
    15    9.548492645097e-02
    16    7.939517457634e-02
    17   -2.486926437512e-14
    18    6.389135195559e-04
    19   -6.978231071968e-15
    20   -2.520311170079e-15
    21    8.691444112842e-03
    22   -4.450579938508e-03
    23    2.100004986702e-03
    24   -4.108587862594e-04
    25   -2.793321841459e-02
    26    3.158763012604e-04
    27   -1.824645058865e-05
    28   -1.118231964090e-03
    29    6.417606785878e-16
    30   -2.114378548549e-02
    31   -2.714612359886e-02
    32   -1.100103786021e-02
    33    4.095145585503e-02
    34    1.799714853525e-03
    35    5.521011928367e-04
    36   -3.677754386957e-15
    37   -1.020928502876e-02
    38   -2.834902677905e-02
    39    1.711366636540e-02
    40    4.703590308581e-02
    41    7.779591414407e-05
    42    7.613062231169e-04
    43    3.015079745964e-15
    44    6.720571096893e-03
    45    1.147080666311e-02
    46   -2.417263754713e-02
    47   -1.498098967539e-03
    48   -2.286793124815e-15
    49   -3.168586483771e-02
    50   -4.031619967554e-02
    51   -4.404796038299e-03
    52   -6.306067414851e-15
    53   -6.531259429268e-02
    54   -1.585625345709e-02
    55    4.171112201953e-02
    56    1.806819221671e-14
    57   -5.013900178123e-02
    58    4.792859550443e-03
    59    1.440651732788e-02
    60    2.100401924713e-14
    61    3.957832640742e-04
    62   -2.295039461841e-15
    63    4.725411803963e-15
    64   -1.331880415469e-02
    65   -1.728446730532e-02
    66   -1.101134730314e-03
    67   -1.858114991955e-03
    68    4.593255739091e-02
    69    4.479585226793e-02
    70   -1.314005615316e-14
    71    5.824019071402e-03
    72    6.824395762826e-02
    73    6.894313647790e-02
    74   -3.155818155155e-15
    75   -2.250838437396e-03
    76    6.489050476712e-02
    77    7.128531974420e-02
    78    8.828636050071e-15
    79   -1.096873236351e-02
    80    5.468800947724e-03
    81    1.095126847986e-02
    82   -1.969178960784e-14
    83   -5.356285992278e-04
    84    1.630313525839e-15
    85    2.114623140977e-15
    86    3.230748472847e-03
    87    6.121951838263e-04
    88    7.393542388766e-03
    89    1.285558764644e-02
    90   -5.393914355146e-03
    91    4.428627884179e-02
    92   -7.175363025673e-16
    93   -3.790775249244e-02
    94   -1.355293745853e-02
    95    8.336446563861e-02
    96    1.707592197212e-15
    97   -2.400447373454e-02
    98    6.179640791886e-02
    99   -9.020508735320e-02
   100    1.459409092540e-14
   101    2.774308484818e-01
   102    3.440298835974e-02
   103   -1.524220343905e-01
   104   -4.733707886587e-14
   105   -3.352385190673e-03
   106   -5.044287527524e-16
   107    7.864428193042e-15
   108    6.061262326873e-02
   109   -3.112624941080e-02
   110   -1.308236936130e-03
   111   -2.409699231239e-03
   112    1.580785429492e-01
   113   -2.673457929363e-01
   114    1.662105956015e-14
   115    1.085560224314e-02
   116    1.985689218716e-01
   117   -3.357579827977e-01
   118    1.320866947629e-16
   119   -4.945124778939e-03
   120    1.754971895077e-01
   121   -2.755249139325e-01
   122   -3.804098479766e-14
   123    4.877692878134e-03
   124    1.216236340131e-02
   125   -3.925952901680e-02
   126    3.600027717243e-14
   127    1.303712590773e-04
   128   -1.557734486611e-15
   129    2.341152754307e-15
   130   -1.072920048798e-02
   131    6.456063152749e-03
   132   -1.468777907049e-02
   133   -2.479042830298e-02
   134    7.824102468202e-02
   135   -2.491476636122e-02
   136    5.837942825233e-15
   137    7.055106383431e-02
   138    1.144498444829e-01
   139   -3.302935295222e-02
   140    1.324452211761e-14
   141    1.578635748912e-01
   142    1.362074269786e-01
   143   -4.819192951917e-02
   144   -1.214869976816e-14
   145    1.121468330909e-01
   146   -2.942516645211e-02
   147   -7.429618631240e-02
   148    8.333163352314e-16
   149    1.294544307884e-03
   150    2.534245585673e-15
   151    4.201847207676e-16
   152    1.254659884646e-03
   153    1.535926363525e-03
   154   -5.732554281974e-03
   155   -9.608603772892e-03
   156   -6.860558095787e-04
   157    9.412452266323e-03
   158    2.908616015419e-15
   159    2.675783522813e-02
   160   -1.935119361436e-03
   161    1.289126886917e-02
   162    2.435030238881e-15
   163    6.877363186142e-02
   164   -1.311612100928e-02
   165    2.756094677456e-02
   166   -1.855521443549e-14
   167    1.748378817814e-02
   168   -3.064572999412e-02
   169   -5.135178974187e-02
   170    3.755586212898e-15
   171    8.006003180537e-04
   172   -1.769119992689e-15
   173   -5.869719219943e-15
   174    4.076737414998e-03
   175    1.010368208626e-03
   176    1.457321180371e-02
   177    2.413296731698e-02
   178   -1.730790858323e-02
   179   -8.080083181968e-02
   180   -4.500103702942e-17
   181   -6.055715067445e-02
   182   -2.774173083482e-02
   183   -1.165459446949e-01
   184    8.695161865946e-15
   185   -2.653833081582e-01
   186    1.429866138766e-02
   187   -1.550786740797e-01
   188   -1.996624918869e-14
   189   -6.164974351143e-01
   190    9.054565888598e-02
   191   -5.461558799428e-02
   192    3.957793024670e-14
   193   -4.358955889044e-03
   194   -1.102183263574e-14
   195    1.029619565241e-15
   196    2.767517081877e-03
   197   -2.565752175677e-04
   198    1.149107876006e-02
   199    2.491620371117e-02
   200   -3.942258261227e-03
   201   -3.508998574765e-02
   202   -1.176213319299e-03
   203    5.363735461300e-04
   204    1.503700575741e-15
[5D]
