[Molden Format]
[Atoms] (Angs)
  C      1    6     -0.00714236     -1.70213747     -0.00000000
  H      2    1     -2.06882847     -1.44022412      0.00000000
  H      3    1     -0.12337987     -2.77567521      0.00000000
  H      4    1      0.04651892      1.98813947     -0.00000000
  C      5    6     -1.21953563      0.40211669      0.00000000
  O      6    8     -2.25921553      1.03043814      0.00000000
  C      7    6      1.28797806      0.34644937     -0.00000000
  O      8    8      2.31273661      1.00537216     -0.00000000
  N      9    7      0.03446295      0.97739857     -0.00000000
  N     10    7     -1.17287765     -0.98229824      0.00000000
  C     11    6      1.20107039     -1.10433419     -0.00000000
  H     12    1      2.11220096     -1.67699125     -0.00000000
[GTO]
1    0
S    6    1.000000
   4.56324000E+03    1.96665000E-03 
   6.82024000E+02    1.52306000E-02 
   1.54973000E+02    7.61269000E-02 
   4.44553000E+01    2.60801000E-01 
   1.30290000E+01    6.16462000E-01 
   1.82773000E+00    2.21006000E-01 
SP   3    1.000000
   2.09642000E+01    1.14660000E-01   4.02487000E-02 
   4.80331000E+00    9.19999000E-01   2.37594000E-01 
   1.45933000E+00   -3.03068000E-03   8.15854000E-01 
SP   1    1.000000
   4.83456000E-01    1.00000000E+00   1.00000000E+00 
SP   1    1.000000
   1.45585000E-01    1.00000000E+00   1.00000000E+00 
SP   1    1.000000
   4.38000000E-02    1.00000000E+00   1.00000000E+00 
D    1    1.000000
   6.26000000E-01    1.00000000E+00 

2    0
S    3    1.000000
   3.38650000E+01    2.54938000E-02 
   5.09479000E+00    1.90373000E-01 
   1.15879000E+00    8.52161000E-01 
S    1    1.000000
   3.25840000E-01    1.00000000E+00 
S    1    1.000000
   1.02741000E-01    1.00000000E+00 
S    1    1.000000
   3.60000000E-02    1.00000000E+00 
P    1    1.000000
   7.50000000E-01    1.00000000E+00 

3    0
S    3    1.000000
   3.38650000E+01    2.54938000E-02 
   5.09479000E+00    1.90373000E-01 
   1.15879000E+00    8.52161000E-01 
S    1    1.000000
   3.25840000E-01    1.00000000E+00 
S    1    1.000000
   1.02741000E-01    1.00000000E+00 
S    1    1.000000
   3.60000000E-02    1.00000000E+00 
P    1    1.000000
   7.50000000E-01    1.00000000E+00 

4    0
S    3    1.000000
   3.38650000E+01    2.54938000E-02 
   5.09479000E+00    1.90373000E-01 
   1.15879000E+00    8.52161000E-01 
S    1    1.000000
   3.25840000E-01    1.00000000E+00 
S    1    1.000000
   1.02741000E-01    1.00000000E+00 
S    1    1.000000
   3.60000000E-02    1.00000000E+00 
P    1    1.000000
   7.50000000E-01    1.00000000E+00 

5    0
S    6    1.000000
   4.56324000E+03    1.96665000E-03 
   6.82024000E+02    1.52306000E-02 
   1.54973000E+02    7.61269000E-02 
   4.44553000E+01    2.60801000E-01 
   1.30290000E+01    6.16462000E-01 
   1.82773000E+00    2.21006000E-01 
SP   3    1.000000
   2.09642000E+01    1.14660000E-01   4.02487000E-02 
   4.80331000E+00    9.19999000E-01   2.37594000E-01 
   1.45933000E+00   -3.03068000E-03   8.15854000E-01 
SP   1    1.000000
   4.83456000E-01    1.00000000E+00   1.00000000E+00 
SP   1    1.000000
   1.45585000E-01    1.00000000E+00   1.00000000E+00 
SP   1    1.000000
   4.38000000E-02    1.00000000E+00   1.00000000E+00 
D    1    1.000000
   6.26000000E-01    1.00000000E+00 

6    0
S    6    1.000000
   8.58850000E+03    1.89515000E-03 
   1.29723000E+03    1.43859000E-02 
   2.99296000E+02    7.07320000E-02 
   8.73771000E+01    2.40001000E-01 
   2.56789000E+01    5.94797000E-01 
   3.74004000E+00    2.80802000E-01 
SP   3    1.000000
   4.21175000E+01    1.13889000E-01   3.65114000E-02 
   9.62837000E+00    9.20811000E-01   2.37153000E-01 
   2.85332000E+00   -3.27447000E-03   8.19702000E-01 
SP   1    1.000000
   9.05661000E-01    1.00000000E+00   1.00000000E+00 
SP   1    1.000000
   2.55611000E-01    1.00000000E+00   1.00000000E+00 
SP   1    1.000000
   8.45000000E-02    1.00000000E+00   1.00000000E+00 
D    1    1.000000
   1.29200000E+00    1.00000000E+00 

7    0
S    6    1.000000
   4.56324000E+03    1.96665000E-03 
   6.82024000E+02    1.52306000E-02 
   1.54973000E+02    7.61269000E-02 
   4.44553000E+01    2.60801000E-01 
   1.30290000E+01    6.16462000E-01 
   1.82773000E+00    2.21006000E-01 
SP   3    1.000000
   2.09642000E+01    1.14660000E-01   4.02487000E-02 
   4.80331000E+00    9.19999000E-01   2.37594000E-01 
   1.45933000E+00   -3.03068000E-03   8.15854000E-01 
SP   1    1.000000
   4.83456000E-01    1.00000000E+00   1.00000000E+00 
SP   1    1.000000
   1.45585000E-01    1.00000000E+00   1.00000000E+00 
SP   1    1.000000
   4.38000000E-02    1.00000000E+00   1.00000000E+00 
D    1    1.000000
   6.26000000E-01    1.00000000E+00 

8    0
S    6    1.000000
   8.58850000E+03    1.89515000E-03 
   1.29723000E+03    1.43859000E-02 
   2.99296000E+02    7.07320000E-02 
   8.73771000E+01    2.40001000E-01 
   2.56789000E+01    5.94797000E-01 
   3.74004000E+00    2.80802000E-01 
SP   3    1.000000
   4.21175000E+01    1.13889000E-01   3.65114000E-02 
   9.62837000E+00    9.20811000E-01   2.37153000E-01 
   2.85332000E+00   -3.27447000E-03   8.19702000E-01 
SP   1    1.000000
   9.05661000E-01    1.00000000E+00   1.00000000E+00 
SP   1    1.000000
   2.55611000E-01    1.00000000E+00   1.00000000E+00 
SP   1    1.000000
   8.45000000E-02    1.00000000E+00   1.00000000E+00 
D    1    1.000000
   1.29200000E+00    1.00000000E+00 

9    0
S    6    1.000000
   6.29348000E+03    1.96979000E-03 
   9.49044000E+02    1.49613000E-02 
   2.18776000E+02    7.35006000E-02 
   6.36916000E+01    2.48937000E-01 
   1.88282000E+01    6.02460000E-01 
   2.72023000E+00    2.56202000E-01 
SP   3    1.000000
   3.06331000E+01    1.11906000E-01   3.83119000E-02 
   7.02614000E+00    9.21666000E-01   2.37403000E-01 
   2.11205000E+00   -2.56919000E-03   8.17592000E-01 
SP   1    1.000000
   6.84009000E-01    1.00000000E+00   1.00000000E+00 
SP   1    1.000000
   2.00878000E-01    1.00000000E+00   1.00000000E+00 
SP   1    1.000000
   6.39000000E-02    1.00000000E+00   1.00000000E+00 
D    1    1.000000
   9.13000000E-01    1.00000000E+00 

10    0
S    6    1.000000
   6.29348000E+03    1.96979000E-03 
   9.49044000E+02    1.49613000E-02 
   2.18776000E+02    7.35006000E-02 
   6.36916000E+01    2.48937000E-01 
   1.88282000E+01    6.02460000E-01 
   2.72023000E+00    2.56202000E-01 
SP   3    1.000000
   3.06331000E+01    1.11906000E-01   3.83119000E-02 
   7.02614000E+00    9.21666000E-01   2.37403000E-01 
   2.11205000E+00   -2.56919000E-03   8.17592000E-01 
SP   1    1.000000
   6.84009000E-01    1.00000000E+00   1.00000000E+00 
SP   1    1.000000
   2.00878000E-01    1.00000000E+00   1.00000000E+00 
SP   1    1.000000
   6.39000000E-02    1.00000000E+00   1.00000000E+00 
D    1    1.000000
   9.13000000E-01    1.00000000E+00 

11    0
S    6    1.000000
   4.56324000E+03    1.96665000E-03 
   6.82024000E+02    1.52306000E-02 
   1.54973000E+02    7.61269000E-02 
   4.44553000E+01    2.60801000E-01 
   1.30290000E+01    6.16462000E-01 
   1.82773000E+00    2.21006000E-01 
SP   3    1.000000
   2.09642000E+01    1.14660000E-01   4.02487000E-02 
   4.80331000E+00    9.19999000E-01   2.37594000E-01 
   1.45933000E+00   -3.03068000E-03   8.15854000E-01 
SP   1    1.000000
   4.83456000E-01    1.00000000E+00   1.00000000E+00 
SP   1    1.000000
   1.45585000E-01    1.00000000E+00   1.00000000E+00 
SP   1    1.000000
   4.38000000E-02    1.00000000E+00   1.00000000E+00 
D    1    1.000000
   6.26000000E-01    1.00000000E+00 

12    0
S    3    1.000000
   3.38650000E+01    2.54938000E-02 
   5.09479000E+00    1.90373000E-01 
   1.15879000E+00    8.52161000E-01 
S    1    1.000000
   3.25840000E-01    1.00000000E+00 
S    1    1.000000
   1.02741000E-01    1.00000000E+00 
S    1    1.000000
   3.60000000E-02    1.00000000E+00 
P    1    1.000000
   7.50000000E-01    1.00000000E+00 

[MO]
Sym=X
Ene= -0.002123
Spin=Alpha
Occup=1
     1   -9.246962178365e-05
     2   -1.608761231671e-04
     3    2.008598478955e-05
     4   -3.176795398593e-04
     5   -3.533269869200e-16
     6    5.567510419772e-04
     7    3.682822616418e-05
     8   -5.305703676921e-04
     9    1.504750189017e-15
    10    1.248045542739e-03
    11    2.631876804436e-04
    12   -1.107759412621e-03
    13   -1.424332632013e-15
    14    3.023479086695e-03
    15    1.307213850461e-03
    16   -6.474446697652e-03
    17   -1.109702869037e-14
    18   -3.979185274308e-05
    19    1.018997323852e-16
    20    1.403745032792e-16
    21    1.195823644582e-04
    22   -2.532282931805e-05
    23   -7.735396225696e-05
    24   -3.274810041959e-04
    25   -1.929312201261e-03
    26   -3.993336943810e-03
    27    7.837472854881e-05
    28    4.641245192780e-05
    29   -7.341685194284e-17
    30   -2.258224800551e-06
    31   -7.052584547236e-05
    32   -1.953905860796e-03
    33   -9.378284870337e-03
    34    2.784638816258e-05
    35    8.526684743971e-05
    36    6.564379691240e-16
    37   -3.501021332684e-05
    38   -2.078245052417e-05
    39   -1.794506610277e-04
    40    2.865249485137e-04
    41    8.953667130668e-06
    42   -2.725021760134e-05
    43    8.439063247799e-16
    44    6.188120462107e-07
    45   -8.881447140253e-05
    46   -7.276125131418e-05
    47    3.251552996805e-05
    48   -9.112081941510e-16
    49    4.602982123806e-04
    50   -3.590307064252e-04
    51    1.825434383479e-04
    52    4.146918545001e-15
    53   -7.063069806567e-04
    54   -8.509161027647e-04
    55    4.685177152320e-04
    56   -4.627971814176e-15
    57    7.554695046574e-04
    58   -7.514576146663e-05
    59   -1.654837519928e-03
    60   -4.724343319031e-15
    61   -9.634147153784e-05
    62   -8.407863706929e-16
    63   -6.355077324129e-16
    64    8.826423244706e-05
    65   -1.100491909103e-04
    66    5.514479555507e-01
    67    4.716296186605e-01
    68    1.512577203341e-03
    69   -9.731898686350e-04
    70    1.740705784205e-16
    71    5.665490855186e-03
    72   -6.995993879863e-04
    73    3.649095789917e-04
    74   -3.678594882702e-16
    75   -1.128858342361e-03
    76    8.284125034470e-05
    77   -1.493311871826e-04
    78   -1.041942752303e-15
    79    1.075125209919e-03
    80   -1.869794265986e-04
    81    3.620834980806e-04
    82    1.391134862706e-15
    83   -9.426919654098e-05
    84   -2.892800028646e-16
    85    2.806038606009e-16
    86   -3.748481851737e-05
    87    6.010778013089e-05
    88   -3.087842872190e-05
    89   -5.389954513867e-05
    90   -4.200293976743e-06
    91   -8.595469406630e-05
    92   -2.788842884037e-16
    93    2.168884782775e-04
    94    2.843784584017e-07
    95   -1.466254057487e-04
    96    2.597093045743e-15
    97   -4.603168275518e-06
    98    4.301318238934e-04
    99   -7.823210346174e-05
   100   -4.142435351813e-15
   101   -1.668133422995e-03
   102   -8.195366590267e-04
   103   -5.099404557857e-04
   104   -2.049193377071e-14
   105   -1.706002396160e-05
   106   -3.554203691045e-18
   107    2.035814513398e-17
   108   -1.737117747938e-05
   109   -3.055946613654e-05
   110   -5.245403866692e-06
   111   -1.106271075398e-05
   112    1.026055419584e-05
   113    5.753420942696e-05
   114    1.506214496687e-15
   115    4.715554548616e-05
   116    1.709295056630e-05
   117    8.973009003647e-05
   118   -1.081463458568e-15
   119    1.232719553569e-05
   120   -2.707062115368e-05
   121    1.020151619046e-04
   122   -1.899162880622e-15
   123   -1.890273179871e-04
   124    3.429034055401e-04
   125    3.237938576635e-04
   126    8.121378122303e-15
   127   -2.931057112387e-06
   128    4.758373175688e-16
   129    1.103411491847e-15
   130   -3.636234705666e-07
   131    3.847447523586e-06
   132   -5.495181517854e-05
   133   -9.412274027515e-05
   134   -3.609682439409e-05
   135   -2.458169187819e-05
   136    4.977555864866e-16
   137    2.773316782089e-04
   138   -1.051343745750e-04
   139   -4.240907728330e-05
   140    5.170573199815e-17
   141    1.180201426814e-03
   142   -1.069952936954e-04
   143   -4.636713304478e-04
   144   -1.964604028932e-15
   145    2.655522903504e-03
   146    3.848787650055e-04
   147   -3.253095562353e-04
   148    1.192555171802e-14
   149   -1.765865967404e-05
   150    2.098184884236e-16
   151   -7.298446903177e-16
   152    3.799856852455e-05
   153    1.825228941043e-06
   154   -1.151710863241e-04
   155   -1.981277394857e-04
   156   -1.807311155459e-04
   157   -1.314420644280e-04
   158   -6.761789472363e-16
   159    6.134173921827e-04
   160   -3.069613775902e-04
   161   -1.569463348748e-04
   162    9.992996763152e-17
   163    2.154450543995e-03
   164   -1.733971638786e-04
   165   -1.761032982990e-04
   166   -1.205568367872e-15
   167    4.668440300595e-03
   168   -7.677727386276e-04
   169    5.615572090547e-06
   170    8.783251550294e-15
   171   -2.841497735191e-05
   172   -2.505899375488e-16
   173    2.840439266253e-16
   174   -5.907459816263e-05
   175   -5.968000934829e-05
   176   -5.931182314997e-05
   177   -1.032795137071e-04
   178    8.822294043056e-05
   179   -6.369473867204e-05
   180   -1.341365139340e-15
   181    3.388110816639e-04
   182    1.333450929380e-04
   183   -7.300087696352e-05
   184    6.345866383342e-16
   185    1.113448593873e-03
   186    1.196932536109e-04
   187   -5.591347886890e-05
   188   -6.740105028721e-16
   189    2.464571575930e-03
   190    1.371587896510e-03
   191    1.981059227082e-03
   192    1.840150090351e-14
   193   -2.500474479764e-05
   194   -4.748380640488e-17
   195   -3.665734650685e-16
   196   -6.180188543232e-05
   197    6.477183433661e-05
   198   -4.362169065659e-05
   199   -1.621766817629e-04
   200   -6.341792340467e-04
   201   -2.300939405890e-03
   202   -3.198439679990e-05
   203    2.600746669434e-05
   204    8.107786373776e-16
Sym=X
Ene= 0.002123
Spin=Alpha
Occup=0
     1   -1.153734261558e-15
     2   -2.368869191622e-15
     3    3.162019532277e-17
     4   -7.787768783219e-16
     5    1.526151019717e-01
     6    1.318463100196e-14
     7   -1.832180310620e-15
     8    2.647033126381e-15
     9    2.635369768201e-01
    10    1.719177822902e-13
    11   -2.127926017914e-14
    12    1.969103243674e-13
    13    2.421765571319e-01
    14    2.721591700052e-12
    15    1.116804669312e-12
    16    4.641509536172e-13
    17    2.443412156988e-02
    18    5.590878974281e-16
    19    1.672443391760e-02
    20    2.226415269781e-02
    21   -2.575136385117e-15
    22    3.646398197331e-15
    23   -3.168549989559e-15
    24   -1.124985044934e-13
    25   -2.676904405735e-13
    26    6.999663063938e-16
    27   -1.110593846115e-14
    28   -8.488583532803e-15
    29   -1.396339094093e-02
    30    8.873428143432e-17
    31    8.920260457543e-15
    32    2.172077038846e-13
    33    5.403827223264e-13
    34   -1.459267675308e-15
    35    1.940610592601e-15
    36    7.930090309068e-03
    37    7.840923792388e-15
    38    2.102018593180e-15
    39    4.649163118582e-13
    40   -2.413634886166e-13
    41    1.900110257038e-15
    42    4.598351750950e-15
    43   -8.747242238227e-04
    44    1.012543432303e-15
    45    1.946483758087e-15
    46    2.922948191584e-15
    47   -1.741592450891e-17
    48   -2.707098688896e-02
    49   -2.050287489573e-14
    50    1.795923879747e-14
    51   -5.819387028352e-15
    52   -5.552957154460e-02
    53    8.826390908187e-14
    54    3.045638382087e-13
    55    1.001732959591e-13
    56   -1.156245194495e-02
    57    5.427892883869e-13
    58    3.100583936564e-13
    59    2.522551238195e-13
    60    2.789688492594e-02
    61    2.016009021026e-15
    62   -3.267079267835e-03
    63    1.812157766242e-02
    64    4.245670648601e-15
    65    7.330218379124e-16
    66    3.862791720843e-16
    67    1.314010853926e-15
    68    1.077577236386e-15
    69    1.275264034815e-15
    70    6.748324194430e-02
    71   -1.184130015982e-14
    72   -9.408183007310e-16
    73   -3.870056621717e-15
    74    8.404129531625e-02
    75    7.127119229814e-14
    76    2.286966976059e-14
    77   -2.995122487875e-14
    78    6.401043231826e-02
    79    2.324592517798e-13
    80    5.229107014248e-14
    81   -1.103998977306e-13
    82   -1.218822184653e-03
    83    3.190514016256e-16
    84    2.255494708990e-03
    85   -1.126125620811e-03
    86    3.805797503450e-16
    87    4.830457992418e-16
    88   -4.625442575535e-16
    89   -3.390740784753e-15
    90    2.518816465118e-15
    91    1.129820589895e-15
    92    5.882042547209e-03
    93    2.244120550523e-14
    94    1.348667937158e-14
    95   -3.074511459386e-15
    96    8.104855098935e-03
    97   -7.585863431124e-14
    98    2.680952623282e-15
    99   -9.989642839274e-14
   100    1.288785773834e-02
   101   -3.925227585503e-12
   102   -5.860461640287e-13
   103    1.505795461028e-12
   104   -4.730863488822e-02
   105    2.868828675195e-15
   106   -2.344350383719e-02
   107   -3.619107530036e-02
   108    1.911950205385e-15
   109   -7.037870521958e-15
   110    1.121391041201e-15
   111    1.753125490642e-15
   112   -6.974011920246e-16
   113   -6.736618089197e-15
   114   -9.400320443284e-02
   115   -1.085727409039e-14
   116   -2.565507479141e-16
   117   -1.468989149346e-14
   118   -1.400131684899e-01
   119    2.914134044013e-14
   120   -3.515497963999e-14
   121    2.845481822441e-14
   122   -1.486292869270e-01
   123    2.060437322710e-13
   124    4.588669708385e-14
   125   -6.216330376247e-14
   126   -2.912917352527e-02
   127   -4.615620071879e-16
   128    5.829980257653e-03
   129    1.481643255617e-03
   130    9.745373433511e-16
   131    1.145470868223e-15
   132    2.664238194764e-16
   133    4.205514071829e-17
   134    2.637580589063e-15
   135    4.103640705934e-15
   136    1.782510998221e-04
   137    1.587617926618e-14
   138    5.700578650971e-15
   139    2.476260349792e-14
   140   -2.569511481067e-03
   141   -2.019805735851e-13
   142    1.333472882500e-13
   143   -5.749605497731e-14
   144    3.469361900288e-03
   145   -7.749489325881e-13
   146    9.191090644524e-14
   147   -6.062392461997e-13
   148    5.993326618545e-03
   149   -3.766289032904e-15
   150    1.824476513979e-03
   151   -1.719973019509e-03
   152   -4.954223793314e-16
   153   -1.325670353026e-15
   154    1.263109509440e-15
   155    3.960441555138e-15
   156    2.943694133244e-15
   157    1.389372397768e-15
   158   -6.574276043208e-02
   159   -2.483174041317e-14
   160    2.903876791183e-14
   161    1.301342015836e-14
   162   -1.060421869508e-01
   163    7.927828530638e-14
   164   -2.754659671117e-13
   165   -4.562302312318e-14
   166   -1.567416542111e-01
   167   -9.805139117219e-14
   168   -4.556981962705e-13
   169   -4.032588907234e-13
   170   -6.597088517834e-02
   171   -4.034739658551e-15
   172    1.736940731630e-02
   173   -1.049372816827e-02
   174    5.782954947429e-15
   175    1.917785397947e-15
   176   -1.503183944836e-15
   177   -8.016441068992e-16
   178    1.645294929258e-15
   179   -2.826917405829e-15
   180    1.668999584028e-01
   181    6.915991683695e-15
   182    2.134263672301e-14
   183    9.777497721670e-15
   184    2.823510663812e-01
   185   -9.814727573500e-14
   186    4.022643203945e-14
   187   -1.277849887156e-13
   188    2.442413960629e-01
   189    7.201417109788e-13
   190    1.374453649156e-12
   191    1.775089808770e-12
   192    5.217339327722e-02
   193    7.617801897431e-15
   194   -2.684502523370e-02
   195    5.752941686853e-03
   196   -1.896934036948e-15
   197    3.463833068926e-15
   198   -3.564222110267e-15
   199   -5.524760242890e-15
   200   -1.235809371267e-13
   201   -1.509753138689e-13
   202    2.463338595132e-15
   203    1.718933138656e-15
   204    1.048047707338e-02
[5D]
