[Molden Format]
[Atoms] (Angs)
  C      1    6     -0.00714236     -1.70213747     -0.00000000
  H      2    1     -2.06882847     -1.44022412      0.00000000
  H      3    1     -0.12337987     -2.77567521      0.00000000
  H      4    1      0.04651892      1.98813947     -0.00000000
  C      5    6     -1.21953563      0.40211669      0.00000000
  O      6    8     -2.25921553      1.03043814      0.00000000
  C      7    6      1.28797806      0.34644937     -0.00000000
  O      8    8      2.31273661      1.00537216     -0.00000000
  N      9    7      0.03446295      0.97739857     -0.00000000
  N     10    7     -1.17287765     -0.98229824      0.00000000
  C     11    6      1.20107039     -1.10433419     -0.00000000
  H     12    1      2.11220096     -1.67699125     -0.00000000
[GTO]
1    0
S    6    1.000000
   4.56324000E+03    1.96665000E-03 
   6.82024000E+02    1.52306000E-02 
   1.54973000E+02    7.61269000E-02 
   4.44553000E+01    2.60801000E-01 
   1.30290000E+01    6.16462000E-01 
   1.82773000E+00    2.21006000E-01 
SP   3    1.000000
   2.09642000E+01    1.14660000E-01   4.02487000E-02 
   4.80331000E+00    9.19999000E-01   2.37594000E-01 
   1.45933000E+00   -3.03068000E-03   8.15854000E-01 
SP   1    1.000000
   4.83456000E-01    1.00000000E+00   1.00000000E+00 
SP   1    1.000000
   1.45585000E-01    1.00000000E+00   1.00000000E+00 
SP   1    1.000000
   4.38000000E-02    1.00000000E+00   1.00000000E+00 
D    1    1.000000
   6.26000000E-01    1.00000000E+00 

2    0
S    3    1.000000
   3.38650000E+01    2.54938000E-02 
   5.09479000E+00    1.90373000E-01 
   1.15879000E+00    8.52161000E-01 
S    1    1.000000
   3.25840000E-01    1.00000000E+00 
S    1    1.000000
   1.02741000E-01    1.00000000E+00 
S    1    1.000000
   3.60000000E-02    1.00000000E+00 
P    1    1.000000
   7.50000000E-01    1.00000000E+00 

3    0
S    3    1.000000
   3.38650000E+01    2.54938000E-02 
   5.09479000E+00    1.90373000E-01 
   1.15879000E+00    8.52161000E-01 
S    1    1.000000
   3.25840000E-01    1.00000000E+00 
S    1    1.000000
   1.02741000E-01    1.00000000E+00 
S    1    1.000000
   3.60000000E-02    1.00000000E+00 
P    1    1.000000
   7.50000000E-01    1.00000000E+00 

4    0
S    3    1.000000
   3.38650000E+01    2.54938000E-02 
   5.09479000E+00    1.90373000E-01 
   1.15879000E+00    8.52161000E-01 
S    1    1.000000
   3.25840000E-01    1.00000000E+00 
S    1    1.000000
   1.02741000E-01    1.00000000E+00 
S    1    1.000000
   3.60000000E-02    1.00000000E+00 
P    1    1.000000
   7.50000000E-01    1.00000000E+00 

5    0
S    6    1.000000
   4.56324000E+03    1.96665000E-03 
   6.82024000E+02    1.52306000E-02 
   1.54973000E+02    7.61269000E-02 
   4.44553000E+01    2.60801000E-01 
   1.30290000E+01    6.16462000E-01 
   1.82773000E+00    2.21006000E-01 
SP   3    1.000000
   2.09642000E+01    1.14660000E-01   4.02487000E-02 
   4.80331000E+00    9.19999000E-01   2.37594000E-01 
   1.45933000E+00   -3.03068000E-03   8.15854000E-01 
SP   1    1.000000
   4.83456000E-01    1.00000000E+00   1.00000000E+00 
SP   1    1.000000
   1.45585000E-01    1.00000000E+00   1.00000000E+00 
SP   1    1.000000
   4.38000000E-02    1.00000000E+00   1.00000000E+00 
D    1    1.000000
   6.26000000E-01    1.00000000E+00 

6    0
S    6    1.000000
   8.58850000E+03    1.89515000E-03 
   1.29723000E+03    1.43859000E-02 
   2.99296000E+02    7.07320000E-02 
   8.73771000E+01    2.40001000E-01 
   2.56789000E+01    5.94797000E-01 
   3.74004000E+00    2.80802000E-01 
SP   3    1.000000
   4.21175000E+01    1.13889000E-01   3.65114000E-02 
   9.62837000E+00    9.20811000E-01   2.37153000E-01 
   2.85332000E+00   -3.27447000E-03   8.19702000E-01 
SP   1    1.000000
   9.05661000E-01    1.00000000E+00   1.00000000E+00 
SP   1    1.000000
   2.55611000E-01    1.00000000E+00   1.00000000E+00 
SP   1    1.000000
   8.45000000E-02    1.00000000E+00   1.00000000E+00 
D    1    1.000000
   1.29200000E+00    1.00000000E+00 

7    0
S    6    1.000000
   4.56324000E+03    1.96665000E-03 
   6.82024000E+02    1.52306000E-02 
   1.54973000E+02    7.61269000E-02 
   4.44553000E+01    2.60801000E-01 
   1.30290000E+01    6.16462000E-01 
   1.82773000E+00    2.21006000E-01 
SP   3    1.000000
   2.09642000E+01    1.14660000E-01   4.02487000E-02 
   4.80331000E+00    9.19999000E-01   2.37594000E-01 
   1.45933000E+00   -3.03068000E-03   8.15854000E-01 
SP   1    1.000000
   4.83456000E-01    1.00000000E+00   1.00000000E+00 
SP   1    1.000000
   1.45585000E-01    1.00000000E+00   1.00000000E+00 
SP   1    1.000000
   4.38000000E-02    1.00000000E+00   1.00000000E+00 
D    1    1.000000
   6.26000000E-01    1.00000000E+00 

8    0
S    6    1.000000
   8.58850000E+03    1.89515000E-03 
   1.29723000E+03    1.43859000E-02 
   2.99296000E+02    7.07320000E-02 
   8.73771000E+01    2.40001000E-01 
   2.56789000E+01    5.94797000E-01 
   3.74004000E+00    2.80802000E-01 
SP   3    1.000000
   4.21175000E+01    1.13889000E-01   3.65114000E-02 
   9.62837000E+00    9.20811000E-01   2.37153000E-01 
   2.85332000E+00   -3.27447000E-03   8.19702000E-01 
SP   1    1.000000
   9.05661000E-01    1.00000000E+00   1.00000000E+00 
SP   1    1.000000
   2.55611000E-01    1.00000000E+00   1.00000000E+00 
SP   1    1.000000
   8.45000000E-02    1.00000000E+00   1.00000000E+00 
D    1    1.000000
   1.29200000E+00    1.00000000E+00 

9    0
S    6    1.000000
   6.29348000E+03    1.96979000E-03 
   9.49044000E+02    1.49613000E-02 
   2.18776000E+02    7.35006000E-02 
   6.36916000E+01    2.48937000E-01 
   1.88282000E+01    6.02460000E-01 
   2.72023000E+00    2.56202000E-01 
SP   3    1.000000
   3.06331000E+01    1.11906000E-01   3.83119000E-02 
   7.02614000E+00    9.21666000E-01   2.37403000E-01 
   2.11205000E+00   -2.56919000E-03   8.17592000E-01 
SP   1    1.000000
   6.84009000E-01    1.00000000E+00   1.00000000E+00 
SP   1    1.000000
   2.00878000E-01    1.00000000E+00   1.00000000E+00 
SP   1    1.000000
   6.39000000E-02    1.00000000E+00   1.00000000E+00 
D    1    1.000000
   9.13000000E-01    1.00000000E+00 

10    0
S    6    1.000000
   6.29348000E+03    1.96979000E-03 
   9.49044000E+02    1.49613000E-02 
   2.18776000E+02    7.35006000E-02 
   6.36916000E+01    2.48937000E-01 
   1.88282000E+01    6.02460000E-01 
   2.72023000E+00    2.56202000E-01 
SP   3    1.000000
   3.06331000E+01    1.11906000E-01   3.83119000E-02 
   7.02614000E+00    9.21666000E-01   2.37403000E-01 
   2.11205000E+00   -2.56919000E-03   8.17592000E-01 
SP   1    1.000000
   6.84009000E-01    1.00000000E+00   1.00000000E+00 
SP   1    1.000000
   2.00878000E-01    1.00000000E+00   1.00000000E+00 
SP   1    1.000000
   6.39000000E-02    1.00000000E+00   1.00000000E+00 
D    1    1.000000
   9.13000000E-01    1.00000000E+00 

11    0
S    6    1.000000
   4.56324000E+03    1.96665000E-03 
   6.82024000E+02    1.52306000E-02 
   1.54973000E+02    7.61269000E-02 
   4.44553000E+01    2.60801000E-01 
   1.30290000E+01    6.16462000E-01 
   1.82773000E+00    2.21006000E-01 
SP   3    1.000000
   2.09642000E+01    1.14660000E-01   4.02487000E-02 
   4.80331000E+00    9.19999000E-01   2.37594000E-01 
   1.45933000E+00   -3.03068000E-03   8.15854000E-01 
SP   1    1.000000
   4.83456000E-01    1.00000000E+00   1.00000000E+00 
SP   1    1.000000
   1.45585000E-01    1.00000000E+00   1.00000000E+00 
SP   1    1.000000
   4.38000000E-02    1.00000000E+00   1.00000000E+00 
D    1    1.000000
   6.26000000E-01    1.00000000E+00 

12    0
S    3    1.000000
   3.38650000E+01    2.54938000E-02 
   5.09479000E+00    1.90373000E-01 
   1.15879000E+00    8.52161000E-01 
S    1    1.000000
   3.25840000E-01    1.00000000E+00 
S    1    1.000000
   1.02741000E-01    1.00000000E+00 
S    1    1.000000
   3.60000000E-02    1.00000000E+00 
P    1    1.000000
   7.50000000E-01    1.00000000E+00 

[MO]
Sym=X
Ene= -0.002308
Spin=Alpha
Occup=1
     1   -3.677651884666e-07
     2    3.004479229327e-07
     3   -4.740558765336e-06
     4    4.899413524682e-06
     5   -3.202711575711e-16
     6   -3.122918447599e-06
     7    2.488197919453e-05
     8   -1.825416641143e-05
     9    1.595485309266e-15
    10   -2.293192432718e-04
    11    7.547696973061e-05
    12    3.410300558294e-05
    13   -1.414377411175e-15
    14    6.251487058290e-04
    15    6.308333829675e-04
    16    1.778947079890e-04
    17   -8.286671577832e-15
    18    1.646465567326e-06
    19    8.887978626721e-17
    20    1.167856227092e-16
    21    4.130774215770e-06
    22    5.271154162902e-06
    23    3.774592610083e-06
    24    5.029892168358e-05
    25    9.699407299083e-05
    26    2.730286912876e-04
    27    9.517647072893e-06
    28   -7.903095337078e-06
    29   -7.623953146025e-17
    30   -5.095574846463e-06
    31    3.907988890934e-05
    32    2.501904874176e-06
    33    9.814728524701e-05
    34   -1.741994016398e-06
    35    4.688362901235e-06
    36    6.804999137896e-16
    37    3.422679736259e-06
    38    5.525371720454e-05
    39    9.328925979637e-05
    40    3.445888695406e-04
    41    1.092633121098e-05
    42   -5.370645868148e-06
    43    8.457298425116e-16
    44    4.940989451674e-06
    45   -7.759042845923e-05
    46   -6.126054057769e-05
    47    3.748749317489e-05
    48   -9.149945331868e-16
    49    3.086463603447e-04
    50   -3.615726081503e-04
    51    2.179349171142e-04
    52    4.114054213438e-15
    53   -5.425790656180e-05
    54   -4.917342696902e-04
    55    3.039350275889e-04
    56   -4.678001737019e-15
    57    4.364441919456e-04
    58    6.140253545262e-04
    59   -4.354458548313e-04
    60   -6.616335838213e-15
    61   -5.721744972002e-05
    62   -8.632368591065e-16
    63   -6.142235520387e-16
    64    9.298810794857e-05
    65   -1.788865406094e-04
    66    5.514791445859e-01
    67    4.716765032646e-01
    68    1.564708730174e-03
    69   -9.584191771840e-04
    70    2.092134830092e-16
    71    5.533657608832e-03
    72   -6.341302011266e-04
    73    3.885297455280e-04
    74   -3.039865785177e-16
    75   -1.338639214945e-03
    76    1.334464056537e-04
    77   -8.860272782415e-05
    78   -1.030091673018e-15
    79    1.426735263123e-03
    80    5.497520695181e-05
    81   -9.633650138271e-06
    82    2.122059425578e-15
    83   -8.739970492239e-05
    84   -2.974159834308e-16
    85    2.728503330369e-16
    86   -3.883366048035e-05
    87    6.944689656175e-05
    88   -4.345275896511e-07
    89    7.354669496651e-07
    90   -4.235681622643e-06
    91    1.755598439622e-06
    92   -2.303248788201e-16
    93   -4.771712760986e-06
    94    1.850080777153e-05
    95   -1.076510649408e-05
    96    2.635684688716e-15
    97   -2.000004311812e-04
    98    9.830880802585e-05
    99   -4.650721322667e-05
   100   -3.687682242735e-15
   101    7.568974518322e-04
   102    1.174718407437e-04
   103   -6.877986728073e-04
   104   -1.785527949806e-14
   105    3.056716816693e-06
   106   -1.846426162445e-17
   107    2.907820570966e-17
   108   -7.927961900259e-06
   109    2.151375209967e-06
   110    6.256877425374e-06
   111    6.167487247042e-06
   112    2.559488639354e-07
   113   -5.613561358000e-07
   114    1.470675407247e-15
   115   -7.577052963881e-06
   116    1.203499196862e-06
   117    1.582769912022e-06
   118   -1.172642783681e-15
   119    3.692619001273e-05
   120   -1.353802274726e-05
   121   -6.711025823398e-06
   122   -1.840999996349e-15
   123   -1.872947146039e-04
   124    8.565404143828e-05
   125    7.261611809090e-05
   126    7.139545674367e-15
   127    2.729400159208e-07
   128    4.775054288406e-16
   129    1.086100521987e-15
   130    7.557048989787e-07
   131    3.571325042761e-07
   132    2.760513331497e-07
   133    1.617844227101e-06
   134    1.105761667302e-05
   135   -1.196052521675e-06
   136    4.834675289543e-16
   137   -2.768095165691e-05
   138   -3.159324941258e-05
   139    5.984120766119e-06
   140    1.583859148587e-17
   141    3.013651480360e-04
   142    4.739672100739e-05
   143   -2.530702188148e-04
   144   -2.119348772868e-15
   145    1.246644251672e-05
   146    5.481458733659e-04
   147   -8.541948503662e-05
   148    1.226384619318e-14
   149   -7.178811422792e-06
   150    2.172541481620e-16
   151   -7.270128443211e-16
   152    2.287343947334e-05
   153    6.928010719173e-06
   154    3.700090256146e-07
   155    1.491468545534e-06
   156    5.234594852748e-06
   157   -9.635786038223e-06
   158   -6.632214079275e-16
   159   -2.596406553039e-05
   160   -1.588016657001e-05
   161    2.554544663436e-05
   162    8.922236202931e-17
   163    2.737086988596e-04
   164    2.300003039567e-04
   165    7.113433186219e-05
   166   -8.682476657368e-16
   167   -3.030081979074e-05
   168    2.947855142493e-04
   169   -3.663067571929e-04
   170    7.691078676393e-15
   171   -7.679476680508e-06
   172   -2.551636451009e-16
   173    2.742899972116e-16
   174   -1.831162897778e-05
   175   -1.263791105142e-05
   176    1.277405949329e-07
   177   -6.314139169515e-07
   178    1.256447300039e-06
   179   -7.584712659244e-07
   180   -1.373801400014e-15
   181    1.225850776321e-05
   182   -6.488087442303e-06
   183    6.733815986693e-06
   184    5.100311492390e-16
   185   -6.173990330515e-05
   186    4.873471530730e-05
   187   -2.870667860998e-05
   188   -8.008606190605e-16
   189   -2.955298293291e-03
   190    4.559322720343e-04
   191   -2.994120039543e-04
   192    1.526494043264e-14
   193    5.185461007228e-06
   194   -2.845035664185e-17
   195   -3.650353881107e-16
   196    1.775963692490e-08
   197   -3.106944804509e-06
   198    1.321069845899e-06
   199   -8.501714955259e-06
   200   -2.095635253008e-05
   201   -1.795385881054e-04
   202   -4.833409428082e-07
   203    4.252091708813e-07
   204    8.142507956797e-16
Sym=X
Ene= 0.002308
Spin=Alpha
Occup=0
     1   -6.398597347565e-03
     2   -1.116155504239e-02
     3    2.016117781915e-02
     4    7.729819320824e-03
     5    1.190566380791e-15
     6    3.379767662413e-02
     7    3.570673079108e-02
     8    1.659682009244e-02
     9   -1.016573146613e-17
    10    9.059641546072e-02
    11    3.903888453719e-02
    12    5.221730975210e-02
    13    1.769572436964e-14
    14    2.023798293637e-01
    15    9.819186195320e-02
    16    4.485023098270e-02
    17   -7.523675663011e-14
    18    1.669438923485e-04
    19   -5.176417930566e-15
    20   -2.256981021487e-15
    21    6.455419713460e-03
    22   -5.066782705173e-03
    23   -5.309070286707e-04
    24    5.482562880373e-04
    25   -4.355945365325e-02
    26   -1.900959693115e-02
    27    1.794741875913e-05
    28   -5.160366537092e-04
    29    3.044928057248e-16
    30   -1.013522739377e-02
    31   -1.436216865319e-02
    32   -1.891337887621e-02
    33    3.305187079229e-02
    34    2.348222801060e-03
    35    1.821143014669e-03
    36   -2.005034725495e-15
    37   -4.890256442321e-03
    38   -2.611475170514e-02
    39    4.342146740774e-02
    40    9.694725650224e-02
    41    4.341702893931e-05
    42    1.269346975259e-03
    43    3.719607238289e-15
    44    9.420928929469e-03
    45    1.644523624840e-02
    46   -2.831737912639e-02
    47   -1.055814649250e-02
    48   -1.925246851855e-15
    49   -4.877003725020e-02
    50   -4.608335679222e-02
    51   -1.943834847421e-02
    52    1.270384526830e-15
    53   -1.045033235751e-01
    54   -4.591422120061e-02
    55   -8.221891768840e-04
    56   -2.808695913834e-14
    57   -3.304364898449e-02
    58   -1.015710349457e-02
    59   -3.138940909341e-02
    60    1.896103191139e-14
    61   -3.282533930113e-04
    62    6.650490715326e-15
    63   -3.213644144825e-15
    64    2.319680659318e-03
    65   -1.166283920249e-02
    66   -2.821297621390e-03
    67   -4.971027515844e-03
    68    3.632640877478e-02
    69    1.512787583817e-02
    70    3.867287335497e-15
    71    1.803303834303e-02
    72    4.421215548766e-02
    73    1.973900579443e-02
    74    9.804237993539e-15
    75    6.719040855508e-03
    76    3.411349204972e-02
    77    2.183198883144e-02
    78    6.504665990899e-15
    79   -6.899360636606e-03
    80    4.293666845895e-03
    81    8.519256604954e-03
    82   -3.114233425632e-14
    83   -1.544141114658e-04
    84   -2.219137558348e-15
    85   -6.439929898763e-16
    86    3.494052075473e-05
    87   -1.171744614964e-03
    88    3.432979172146e-03
    89    6.443440121233e-03
    90    5.697681917711e-03
    91    1.077288302132e-02
    92   -5.972458202120e-17
    93   -1.786510515670e-02
    94    9.637899676174e-03
    95    3.919420951716e-02
    96    1.504869652379e-15
    97   -4.758661013808e-02
    98    1.112424822104e-01
    99   -1.508014387472e-01
   100   -1.127478649761e-14
   101    2.747035033476e-01
   102    6.664970038557e-02
   103   -2.296248490251e-01
   104   -5.234345074518e-14
   105   -9.086926207453e-03
   106   -1.941707868879e-15
   107    2.760009021892e-15
   108    6.775327391402e-02
   109   -3.158507244077e-02
   110    4.204676980236e-04
   111    7.082723055563e-04
   112    1.318286152228e-01
   113   -2.221994595390e-01
   114   -6.326953914958e-15
   115   -1.047761608730e-03
   116    1.995179876860e-01
   117   -3.316528977004e-01
   118   -1.587824095117e-14
   119   -8.714588160748e-03
   120    2.048561037733e-01
   121   -3.309619206929e-01
   122    6.951165120525e-15
   123   -1.409854648267e-03
   124    2.397209535471e-02
   125   -4.501721505708e-02
   126    4.220885491532e-14
   127    2.748119445384e-04
   128    1.688792980220e-15
   129   -1.453873418005e-15
   130   -1.186388528562e-02
   131    5.330805399005e-03
   132   -2.218722636459e-02
   133   -3.728307215993e-02
   134    7.103343101232e-02
   135   -2.811996158679e-02
   136    3.653117650671e-15
   137    1.039217890840e-01
   138    9.793920062752e-02
   139   -3.401422653146e-02
   140    5.265226356470e-15
   141    2.729131074600e-01
   142    1.384380140119e-01
   143   -7.214662002665e-02
   144    2.312841704586e-14
   145    2.562635781823e-01
   146   -3.611929935614e-02
   147   -1.284321605348e-01
   148   -1.224268317635e-14
   149    3.255983252145e-03
   150   -4.539484336896e-16
   151   -5.591397480288e-16
   152   -5.774657676071e-03
   153    2.599453195648e-03
   154   -2.637018842286e-03
   155   -4.452285675199e-03
   156    2.363065219206e-03
   157    1.317761248001e-03
   158   -2.583723142681e-15
   159    1.229166352607e-02
   160    3.612810485289e-03
   161    2.542457567222e-03
   162   -8.187369427408e-15
   163    3.528354663442e-02
   164   -5.164624952702e-03
   165    1.239591058395e-02
   166   -1.060824857830e-14
   167   -4.461489325022e-02
   168   -5.568466186201e-02
   169   -8.276586484693e-02
   170    6.394716315069e-14
   171    4.126655111019e-05
   172   -6.295219519552e-16
   173   -4.511442535018e-16
   174    2.264841490890e-03
   175   -5.770383051207e-04
   176    2.048174839557e-02
   177    3.400139832903e-02
   178   -1.404439768959e-02
   179   -6.192592758778e-02
   180   -8.183917552430e-16
   181   -8.466511160348e-02
   182   -2.332207385624e-02
   183   -8.253001982686e-02
   184   -4.496266188479e-15
   185   -3.380781236740e-01
   186    1.419588120633e-02
   187   -1.675402149734e-01
   188   -1.412898896256e-14
   189   -6.080587958614e-01
   190    7.917596371978e-02
   191   -5.271009798548e-02
   192    6.660355874210e-14
   193   -4.095907236676e-03
   194   -4.397624955429e-15
   195    1.459661329538e-15
   196   -5.961098413005e-03
   197    3.938617052861e-03
   198   -1.926910445602e-03
   199    5.540316139036e-03
   200   -2.762584380973e-02
   201   -4.842559543911e-02
   202   -2.897780360623e-04
   203    9.242590129122e-04
   204    2.333396906909e-15
[5D]
