[Molden Format]
[Atoms] (Angs)
  C      1    6     -0.00714236     -1.70213747     -0.00000000
  H      2    1     -2.06882847     -1.44022412      0.00000000
  H      3    1     -0.12337987     -2.77567521      0.00000000
  H      4    1      0.04651892      1.98813947     -0.00000000
  C      5    6     -1.21953563      0.40211669      0.00000000
  O      6    8     -2.25921553      1.03043814      0.00000000
  C      7    6      1.28797806      0.34644937     -0.00000000
  O      8    8      2.31273661      1.00537216     -0.00000000
  N      9    7      0.03446295      0.97739857     -0.00000000
  N     10    7     -1.17287765     -0.98229824      0.00000000
  C     11    6      1.20107039     -1.10433419     -0.00000000
  H     12    1      2.11220096     -1.67699125     -0.00000000
[GTO]
1    0
S    6    1.000000
   4.56324000E+03    1.96665000E-03 
   6.82024000E+02    1.52306000E-02 
   1.54973000E+02    7.61269000E-02 
   4.44553000E+01    2.60801000E-01 
   1.30290000E+01    6.16462000E-01 
   1.82773000E+00    2.21006000E-01 
SP   3    1.000000
   2.09642000E+01    1.14660000E-01   4.02487000E-02 
   4.80331000E+00    9.19999000E-01   2.37594000E-01 
   1.45933000E+00   -3.03068000E-03   8.15854000E-01 
SP   1    1.000000
   4.83456000E-01    1.00000000E+00   1.00000000E+00 
SP   1    1.000000
   1.45585000E-01    1.00000000E+00   1.00000000E+00 
SP   1    1.000000
   4.38000000E-02    1.00000000E+00   1.00000000E+00 
D    1    1.000000
   6.26000000E-01    1.00000000E+00 

2    0
S    3    1.000000
   3.38650000E+01    2.54938000E-02 
   5.09479000E+00    1.90373000E-01 
   1.15879000E+00    8.52161000E-01 
S    1    1.000000
   3.25840000E-01    1.00000000E+00 
S    1    1.000000
   1.02741000E-01    1.00000000E+00 
S    1    1.000000
   3.60000000E-02    1.00000000E+00 
P    1    1.000000
   7.50000000E-01    1.00000000E+00 

3    0
S    3    1.000000
   3.38650000E+01    2.54938000E-02 
   5.09479000E+00    1.90373000E-01 
   1.15879000E+00    8.52161000E-01 
S    1    1.000000
   3.25840000E-01    1.00000000E+00 
S    1    1.000000
   1.02741000E-01    1.00000000E+00 
S    1    1.000000
   3.60000000E-02    1.00000000E+00 
P    1    1.000000
   7.50000000E-01    1.00000000E+00 

4    0
S    3    1.000000
   3.38650000E+01    2.54938000E-02 
   5.09479000E+00    1.90373000E-01 
   1.15879000E+00    8.52161000E-01 
S    1    1.000000
   3.25840000E-01    1.00000000E+00 
S    1    1.000000
   1.02741000E-01    1.00000000E+00 
S    1    1.000000
   3.60000000E-02    1.00000000E+00 
P    1    1.000000
   7.50000000E-01    1.00000000E+00 

5    0
S    6    1.000000
   4.56324000E+03    1.96665000E-03 
   6.82024000E+02    1.52306000E-02 
   1.54973000E+02    7.61269000E-02 
   4.44553000E+01    2.60801000E-01 
   1.30290000E+01    6.16462000E-01 
   1.82773000E+00    2.21006000E-01 
SP   3    1.000000
   2.09642000E+01    1.14660000E-01   4.02487000E-02 
   4.80331000E+00    9.19999000E-01   2.37594000E-01 
   1.45933000E+00   -3.03068000E-03   8.15854000E-01 
SP   1    1.000000
   4.83456000E-01    1.00000000E+00   1.00000000E+00 
SP   1    1.000000
   1.45585000E-01    1.00000000E+00   1.00000000E+00 
SP   1    1.000000
   4.38000000E-02    1.00000000E+00   1.00000000E+00 
D    1    1.000000
   6.26000000E-01    1.00000000E+00 

6    0
S    6    1.000000
   8.58850000E+03    1.89515000E-03 
   1.29723000E+03    1.43859000E-02 
   2.99296000E+02    7.07320000E-02 
   8.73771000E+01    2.40001000E-01 
   2.56789000E+01    5.94797000E-01 
   3.74004000E+00    2.80802000E-01 
SP   3    1.000000
   4.21175000E+01    1.13889000E-01   3.65114000E-02 
   9.62837000E+00    9.20811000E-01   2.37153000E-01 
   2.85332000E+00   -3.27447000E-03   8.19702000E-01 
SP   1    1.000000
   9.05661000E-01    1.00000000E+00   1.00000000E+00 
SP   1    1.000000
   2.55611000E-01    1.00000000E+00   1.00000000E+00 
SP   1    1.000000
   8.45000000E-02    1.00000000E+00   1.00000000E+00 
D    1    1.000000
   1.29200000E+00    1.00000000E+00 

7    0
S    6    1.000000
   4.56324000E+03    1.96665000E-03 
   6.82024000E+02    1.52306000E-02 
   1.54973000E+02    7.61269000E-02 
   4.44553000E+01    2.60801000E-01 
   1.30290000E+01    6.16462000E-01 
   1.82773000E+00    2.21006000E-01 
SP   3    1.000000
   2.09642000E+01    1.14660000E-01   4.02487000E-02 
   4.80331000E+00    9.19999000E-01   2.37594000E-01 
   1.45933000E+00   -3.03068000E-03   8.15854000E-01 
SP   1    1.000000
   4.83456000E-01    1.00000000E+00   1.00000000E+00 
SP   1    1.000000
   1.45585000E-01    1.00000000E+00   1.00000000E+00 
SP   1    1.000000
   4.38000000E-02    1.00000000E+00   1.00000000E+00 
D    1    1.000000
   6.26000000E-01    1.00000000E+00 

8    0
S    6    1.000000
   8.58850000E+03    1.89515000E-03 
   1.29723000E+03    1.43859000E-02 
   2.99296000E+02    7.07320000E-02 
   8.73771000E+01    2.40001000E-01 
   2.56789000E+01    5.94797000E-01 
   3.74004000E+00    2.80802000E-01 
SP   3    1.000000
   4.21175000E+01    1.13889000E-01   3.65114000E-02 
   9.62837000E+00    9.20811000E-01   2.37153000E-01 
   2.85332000E+00   -3.27447000E-03   8.19702000E-01 
SP   1    1.000000
   9.05661000E-01    1.00000000E+00   1.00000000E+00 
SP   1    1.000000
   2.55611000E-01    1.00000000E+00   1.00000000E+00 
SP   1    1.000000
   8.45000000E-02    1.00000000E+00   1.00000000E+00 
D    1    1.000000
   1.29200000E+00    1.00000000E+00 

9    0
S    6    1.000000
   6.29348000E+03    1.96979000E-03 
   9.49044000E+02    1.49613000E-02 
   2.18776000E+02    7.35006000E-02 
   6.36916000E+01    2.48937000E-01 
   1.88282000E+01    6.02460000E-01 
   2.72023000E+00    2.56202000E-01 
SP   3    1.000000
   3.06331000E+01    1.11906000E-01   3.83119000E-02 
   7.02614000E+00    9.21666000E-01   2.37403000E-01 
   2.11205000E+00   -2.56919000E-03   8.17592000E-01 
SP   1    1.000000
   6.84009000E-01    1.00000000E+00   1.00000000E+00 
SP   1    1.000000
   2.00878000E-01    1.00000000E+00   1.00000000E+00 
SP   1    1.000000
   6.39000000E-02    1.00000000E+00   1.00000000E+00 
D    1    1.000000
   9.13000000E-01    1.00000000E+00 

10    0
S    6    1.000000
   6.29348000E+03    1.96979000E-03 
   9.49044000E+02    1.49613000E-02 
   2.18776000E+02    7.35006000E-02 
   6.36916000E+01    2.48937000E-01 
   1.88282000E+01    6.02460000E-01 
   2.72023000E+00    2.56202000E-01 
SP   3    1.000000
   3.06331000E+01    1.11906000E-01   3.83119000E-02 
   7.02614000E+00    9.21666000E-01   2.37403000E-01 
   2.11205000E+00   -2.56919000E-03   8.17592000E-01 
SP   1    1.000000
   6.84009000E-01    1.00000000E+00   1.00000000E+00 
SP   1    1.000000
   2.00878000E-01    1.00000000E+00   1.00000000E+00 
SP   1    1.000000
   6.39000000E-02    1.00000000E+00   1.00000000E+00 
D    1    1.000000
   9.13000000E-01    1.00000000E+00 

11    0
S    6    1.000000
   4.56324000E+03    1.96665000E-03 
   6.82024000E+02    1.52306000E-02 
   1.54973000E+02    7.61269000E-02 
   4.44553000E+01    2.60801000E-01 
   1.30290000E+01    6.16462000E-01 
   1.82773000E+00    2.21006000E-01 
SP   3    1.000000
   2.09642000E+01    1.14660000E-01   4.02487000E-02 
   4.80331000E+00    9.19999000E-01   2.37594000E-01 
   1.45933000E+00   -3.03068000E-03   8.15854000E-01 
SP   1    1.000000
   4.83456000E-01    1.00000000E+00   1.00000000E+00 
SP   1    1.000000
   1.45585000E-01    1.00000000E+00   1.00000000E+00 
SP   1    1.000000
   4.38000000E-02    1.00000000E+00   1.00000000E+00 
D    1    1.000000
   6.26000000E-01    1.00000000E+00 

12    0
S    3    1.000000
   3.38650000E+01    2.54938000E-02 
   5.09479000E+00    1.90373000E-01 
   1.15879000E+00    8.52161000E-01 
S    1    1.000000
   3.25840000E-01    1.00000000E+00 
S    1    1.000000
   1.02741000E-01    1.00000000E+00 
S    1    1.000000
   3.60000000E-02    1.00000000E+00 
P    1    1.000000
   7.50000000E-01    1.00000000E+00 

[MO]
Sym=X
Ene= -0.050530
Spin=Alpha
Occup=1
     1   -1.376086924279e-05
     2   -2.503010225467e-05
     3   -1.027282050088e-05
     4   -2.555261862226e-05
     5    5.344715913961e-16
     6    9.002696626748e-05
     7   -2.923514245498e-05
     8   -3.924638456962e-05
     9   -9.180800534738e-16
    10   -4.836895168892e-04
    11   -3.127724181461e-04
    12   -3.991667489224e-04
    13    5.631881050864e-15
    14    4.094873376174e-03
    15   -2.307391306053e-04
    16   -8.733477008324e-04
    17   -2.106058539612e-14
    18    5.254228820663e-06
    19    8.837919972415e-16
    20    9.319185360315e-16
    21   -5.101486667659e-07
    22    6.653780557415e-06
    23    5.885245822153e-06
    24    3.312735214444e-05
    25    7.363060295515e-04
    26    1.770213296297e-03
    27   -1.911161742903e-05
    28   -8.801933341830e-06
    29   -6.557082738735e-16
    30   -4.905360219439e-06
    31   -1.880693214760e-05
    32   -4.400309050059e-04
    33   -2.239223115052e-03
    34   -2.918980329813e-06
    35    1.116663674839e-05
    36    9.267728757712e-16
    37    1.987760434407e-06
    38    7.255332258758e-05
    39    3.016894637931e-04
    40    1.361760737103e-04
    41   -8.780431242589e-06
    42   -4.394475816573e-06
    43    4.377404886505e-16
    44   -8.269602978307e-06
    45   -1.165674286171e-05
    46    1.202747012225e-05
    47   -1.718900903514e-05
    48   -8.645309306016e-16
    49    2.517066539368e-05
    50   -2.621742467064e-05
    51   -3.561954141904e-05
    52    2.361021851864e-15
    53   -2.229804813120e-04
    54   -1.788169715537e-04
    55    5.256078040446e-05
    56   -1.666821393537e-15
    57   -1.868170646749e-04
    58    5.954205328403e-05
    59    1.183493593210e-04
    60   -1.038570834779e-14
    61    1.653903854433e-05
    62   -3.202714265571e-16
    63    1.365100693335e-15
    64   -1.006158619061e-05
    65   -1.121628276752e-05
    66    9.540635258077e-06
    67    1.652234933469e-05
    68    1.416414821564e-05
    69    1.772679279983e-05
    70    1.915875155950e-16
    71   -5.521304533885e-05
    72    1.541710598703e-05
    73    2.863801533247e-05
    74    1.658275374723e-16
    75   -8.294655645902e-05
    76    2.285847279205e-05
    77    4.016972191869e-05
    78   -2.568986320894e-15
    79   -3.315564882408e-04
    80   -6.876669626968e-05
    81    2.696504778165e-05
    82    3.313002222625e-15
    83    2.184186078583e-06
    84   -3.392984082459e-16
    85    2.068208057654e-16
    86    8.307513921872e-08
    87    1.745596161550e-06
    88    8.874417497872e-06
    89   -6.950840580444e-05
    90    6.153863509120e-05
    91    5.470973926798e-05
    92   -1.079644055297e-15
    93    2.961071175871e-04
    94    3.467044532151e-04
    95    2.258767120936e-04
    96    1.588029645253e-15
    97   -2.899996861773e-04
    98    7.923428200107e-04
    99    6.104025395411e-04
   100    1.670131562453e-16
   101   -8.871369400588e-05
   102   -1.266914482208e-03
   103    1.159102587981e-04
   104    2.119593822163e-15
   105   -5.514202874073e-05
   106    9.574754481123e-16
   107   -6.666534130441e-16
   108    8.697902752391e-05
   109    1.724655152166e-04
   110    5.514828089035e-01
   111    4.716781230290e-01
   112   -1.518191968815e-03
   113   -9.253734691736e-04
   114    1.717482426256e-15
   115    5.519966917211e-03
   116    6.324456661990e-04
   117    3.641377234123e-04
   118   -2.494451677195e-15
   119   -1.382446700748e-03
   120   -8.664107386846e-05
   121   -7.348924900577e-05
   122    3.683223921451e-15
   123    9.024704194605e-04
   124    1.446109156376e-04
   125    1.195383943152e-04
   126   -6.542423133495e-15
   127   -1.200913325692e-04
   128    8.904320061714e-16
   129    9.537157428099e-16
   130   -3.771382637785e-05
   131   -7.465632356372e-05
   132    3.712246053652e-06
   133    8.773059987772e-06
   134    1.730419795031e-05
   135   -4.147132667010e-06
   136    6.041687566852e-16
   137   -6.222546810309e-05
   138    7.106910060801e-05
   139   -4.942615303382e-06
   140   -4.951283257066e-16
   141    3.728546870560e-04
   142    2.002472267890e-05
   143   -3.435473330163e-04
   144    8.476428128715e-17
   145   -7.618618764603e-04
   146   -3.012646281057e-04
   147   -3.713371356141e-04
   148    2.695154544602e-15
   149   -8.343285089298e-06
   150    5.898471524593e-16
   151   -6.846554173193e-16
   152    2.176175966332e-05
   153   -7.550952803747e-06
   154    2.295783900222e-05
   155    4.020221633340e-05
   156    4.025321458694e-05
   157    2.357653933932e-05
   158   -1.238978680095e-15
   159   -1.305243639656e-04
   160    5.914292551188e-05
   161    3.311127522185e-05
   162    2.825444935422e-15
   163   -2.280912266755e-04
   164    1.635775954038e-04
   165    9.458625202965e-05
   166   -7.139928779529e-15
   167   -7.641372019326e-04
   168    7.494307743030e-04
   169    5.760573364955e-04
   170    1.808890914550e-14
   171    2.696319692127e-06
   172   -1.717724959344e-15
   173    1.473664705577e-16
   174   -1.824834180553e-06
   175    7.579816749767e-07
   176   -1.455987477549e-05
   177   -2.485467282539e-05
   178    4.520700773954e-05
   179   -4.029395926563e-05
   180    6.258793832413e-16
   181    4.842116466760e-05
   182    6.748512846260e-05
   183    3.522092784977e-05
   184   -5.626069134829e-16
   185    1.261926143627e-03
   186   -5.253171311466e-04
   187    1.237490810982e-04
   188   -4.151347989965e-15
   189   -6.151913629838e-05
   190    2.531080287557e-03
   191    3.510541899910e-04
   192    1.310003171075e-14
   193   -8.971915738865e-06
   194    9.581300606068e-16
   195    9.740699109122e-16
   196   -2.738023475970e-05
   197    3.287410401061e-05
   198    5.708595361318e-06
   199    1.523816490739e-04
   200   -2.173310366546e-04
   201   -2.584266786594e-03
   202   -2.859520450112e-05
   203    2.502383666899e-05
   204   -7.764154389409e-16
Sym=X
Ene= 0.050530
Spin=Alpha
Occup=0
     1    9.881965969881e-16
     2    1.000588318155e-15
     3    3.800850167931e-15
     4    3.531612982217e-15
     5   -6.450774857325e-02
     6   -6.759583880734e-15
     7   -8.980588063998e-15
     8    1.267624358409e-14
     9   -1.075823032174e-01
    10    1.158833343845e-13
    11   -3.291304859553e-14
    12    1.200153940694e-13
    13   -1.238216975153e-01
    14    5.092840973835e-12
    15    1.167492581926e-12
    16    1.086419727714e-12
    17   -4.193783419977e-03
    18    2.218297680921e-15
    19   -3.721301178359e-02
    20    2.831647643017e-03
    21    6.883986801450e-16
    22   -4.472038240108e-15
    23   -4.158636001135e-15
    24   -4.465775315551e-14
    25   -1.985168599343e-13
    26   -3.028027095997e-14
    27   -6.159968170276e-16
    28    2.041956125653e-15
    29    1.373889525522e-02
    30   -1.515600315654e-15
    31    4.220307918109e-14
    32    4.502409233747e-15
    33    3.615941831234e-13
    34    2.404979539788e-15
    35    3.301470106724e-15
    36   -5.536087958222e-03
    37    5.714986916727e-15
    38    1.769216491178e-14
    39    1.682729529291e-13
    40    1.593672286010e-13
    41    1.042947361801e-15
    42   -8.548119512511e-16
    43    2.710361935094e-03
    44    2.880774376190e-16
    45    3.578927789490e-16
    46    2.919716104674e-15
    47   -1.342617212538e-15
    48   -3.384835532734e-03
    49   -1.038477291605e-14
    50   -4.775571430165e-15
    51   -1.843192553229e-15
    52   -1.850414678487e-03
    53    4.380466043065e-14
    54    6.341287280143e-14
    55    1.468329903486e-14
    56   -3.588778126711e-02
    57   -7.729260989270e-13
    58   -1.962927177012e-13
    59    7.913247591552e-14
    60   -2.981856116233e-02
    61   -2.822833755103e-15
    62    3.350787096101e-02
    63   -3.929774033773e-02
    64   -4.140799104616e-15
    65   -3.513492757795e-15
    66    4.776199348609e-16
    67   -7.736219441284e-16
    68   -5.635270219992e-16
    69   -2.645430229838e-15
    70   -1.348657818413e-01
    71    1.411723571113e-15
    72    3.061970565077e-15
    73    4.983086720888e-15
    74   -2.044448961743e-01
    75    1.967262079969e-15
    76   -1.581246386434e-14
    77   -3.122227535504e-14
    78   -2.001546702046e-01
    79    8.567286415521e-14
    80    5.407162425688e-14
    81    1.941481027269e-14
    82   -4.169429501119e-02
    83    5.445133983611e-16
    84   -8.205828981211e-03
    85    3.760748001413e-03
    86   -9.986327406682e-16
    87    2.074522292837e-15
    88   -5.789728246768e-16
    89    8.387151068255e-16
    90    3.773407285486e-15
    91   -2.297671641968e-15
    92   -1.051652091655e-02
    93    7.692965807328e-15
    94   -1.394827721019e-15
    95   -2.182878643162e-15
    96   -2.256345960665e-02
    97   -1.402313664282e-13
    98    5.337055221521e-15
    99    6.004495422542e-14
   100   -4.938786998146e-03
   101    2.116621305641e-12
   102   -2.680628880392e-13
   103   -4.785147324627e-13
   104    3.389641169903e-02
   105    4.990326106131e-15
   106    6.149507021914e-03
   107    3.016738045397e-02
   108   -2.893997142816e-15
   109   -1.490962907451e-15
   110    2.444389898660e-16
   111   -3.645162491540e-16
   112   -5.276060758021e-15
   113    4.940002705226e-15
   114    9.345029767391e-02
   115    3.011316581337e-17
   116   -7.160772469204e-15
   117    7.835128924976e-15
   118    1.166635355413e-01
   119    1.356711771569e-14
   120    1.521561384789e-14
   121   -4.826873890102e-14
   122    9.246842089932e-02
   123   -1.886610127851e-14
   124   -6.938165325829e-14
   125    5.526350538449e-14
   126    1.138355164284e-02
   127   -1.422445039360e-15
   128   -4.183103435674e-03
   129   -7.822304471808e-04
   130    2.804007677102e-16
   131    1.568084062472e-15
   132    5.186809647067e-16
   133    1.425271010052e-15
   134    2.832122434974e-15
   135    1.595032756832e-15
   136    4.155923700372e-02
   137   -5.255479618176e-15
   138   -1.180504277342e-15
   139    1.634382426084e-14
   140    6.444755378880e-02
   141   -6.385527695564e-14
   142    1.664700097548e-14
   143   -9.395710303094e-14
   144    8.186037563679e-02
   145    1.335700858698e-13
   146   -1.395083787643e-13
   147   -3.093202007475e-13
   148    1.440470367708e-02
   149    3.005602434085e-15
   150    8.735142861015e-04
   151   -7.923627102878e-04
   152   -1.590686165329e-15
   153    3.093962358564e-16
   154    7.635689610857e-16
   155    5.224984177485e-19
   156    2.126543538400e-15
   157    1.994133079507e-15
   158    1.646680653966e-01
   159   -1.485737765494e-15
   160    1.830060598459e-14
   161    4.205142976533e-15
   162    2.585983138641e-01
   163    6.131296331098e-16
   164   -1.508269257906e-13
   165   -2.753543636862e-14
   166    3.152188800827e-01
   167   -3.458451275049e-13
   168   -3.768687822943e-13
   169   -2.627655128714e-13
   170    9.305761215455e-02
   171    2.116945431957e-16
   172   -5.886509689586e-04
   173    4.771066602066e-03
   174    1.315444461581e-15
   175    1.830425097724e-15
   176    7.018246613305e-16
   177   -2.301093045207e-17
   178    2.671071003799e-15
   179   -9.918299096943e-16
   180   -1.396407939495e-01
   181   -1.307127560991e-14
   182    1.357974575092e-14
   183    8.676685284972e-15
   184   -2.329197506488e-01
   185    1.100616778807e-13
   186    1.774520761200e-14
   187   -1.734853697685e-14
   188   -2.396786702007e-01
   189   -6.493968304394e-12
   190    1.433359487836e-12
   191   -1.196046555262e-13
   192   -5.913251292871e-02
   193   -8.704583483371e-15
   194    9.406220218517e-03
   195   -2.459521853161e-03
   196    2.236323128820e-15
   197   -5.036060142941e-16
   198    4.839340580968e-15
   199   -4.519709820914e-14
   200    7.099036333011e-14
   201   -3.773232822388e-13
   202    7.216976971238e-15
   203   -2.557485083580e-15
   204   -1.068390955699e-02
[5D]
