[Molden Format]
[Atoms] (Angs)
  C      1    6     -0.00714236     -1.70213747     -0.00000000
  H      2    1     -2.06882847     -1.44022412      0.00000000
  H      3    1     -0.12337987     -2.77567521      0.00000000
  H      4    1      0.04651892      1.98813947     -0.00000000
  C      5    6     -1.21953563      0.40211669      0.00000000
  O      6    8     -2.25921553      1.03043814      0.00000000
  C      7    6      1.28797806      0.34644937     -0.00000000
  O      8    8      2.31273661      1.00537216     -0.00000000
  N      9    7      0.03446295      0.97739857     -0.00000000
  N     10    7     -1.17287765     -0.98229824      0.00000000
  C     11    6      1.20107039     -1.10433419     -0.00000000
  H     12    1      2.11220096     -1.67699125     -0.00000000
[GTO]
1    0
S    6    1.000000
   4.56324000E+03    1.96665000E-03 
   6.82024000E+02    1.52306000E-02 
   1.54973000E+02    7.61269000E-02 
   4.44553000E+01    2.60801000E-01 
   1.30290000E+01    6.16462000E-01 
   1.82773000E+00    2.21006000E-01 
SP   3    1.000000
   2.09642000E+01    1.14660000E-01   4.02487000E-02 
   4.80331000E+00    9.19999000E-01   2.37594000E-01 
   1.45933000E+00   -3.03068000E-03   8.15854000E-01 
SP   1    1.000000
   4.83456000E-01    1.00000000E+00   1.00000000E+00 
SP   1    1.000000
   1.45585000E-01    1.00000000E+00   1.00000000E+00 
SP   1    1.000000
   4.38000000E-02    1.00000000E+00   1.00000000E+00 
D    1    1.000000
   6.26000000E-01    1.00000000E+00 

2    0
S    3    1.000000
   3.38650000E+01    2.54938000E-02 
   5.09479000E+00    1.90373000E-01 
   1.15879000E+00    8.52161000E-01 
S    1    1.000000
   3.25840000E-01    1.00000000E+00 
S    1    1.000000
   1.02741000E-01    1.00000000E+00 
S    1    1.000000
   3.60000000E-02    1.00000000E+00 
P    1    1.000000
   7.50000000E-01    1.00000000E+00 

3    0
S    3    1.000000
   3.38650000E+01    2.54938000E-02 
   5.09479000E+00    1.90373000E-01 
   1.15879000E+00    8.52161000E-01 
S    1    1.000000
   3.25840000E-01    1.00000000E+00 
S    1    1.000000
   1.02741000E-01    1.00000000E+00 
S    1    1.000000
   3.60000000E-02    1.00000000E+00 
P    1    1.000000
   7.50000000E-01    1.00000000E+00 

4    0
S    3    1.000000
   3.38650000E+01    2.54938000E-02 
   5.09479000E+00    1.90373000E-01 
   1.15879000E+00    8.52161000E-01 
S    1    1.000000
   3.25840000E-01    1.00000000E+00 
S    1    1.000000
   1.02741000E-01    1.00000000E+00 
S    1    1.000000
   3.60000000E-02    1.00000000E+00 
P    1    1.000000
   7.50000000E-01    1.00000000E+00 

5    0
S    6    1.000000
   4.56324000E+03    1.96665000E-03 
   6.82024000E+02    1.52306000E-02 
   1.54973000E+02    7.61269000E-02 
   4.44553000E+01    2.60801000E-01 
   1.30290000E+01    6.16462000E-01 
   1.82773000E+00    2.21006000E-01 
SP   3    1.000000
   2.09642000E+01    1.14660000E-01   4.02487000E-02 
   4.80331000E+00    9.19999000E-01   2.37594000E-01 
   1.45933000E+00   -3.03068000E-03   8.15854000E-01 
SP   1    1.000000
   4.83456000E-01    1.00000000E+00   1.00000000E+00 
SP   1    1.000000
   1.45585000E-01    1.00000000E+00   1.00000000E+00 
SP   1    1.000000
   4.38000000E-02    1.00000000E+00   1.00000000E+00 
D    1    1.000000
   6.26000000E-01    1.00000000E+00 

6    0
S    6    1.000000
   8.58850000E+03    1.89515000E-03 
   1.29723000E+03    1.43859000E-02 
   2.99296000E+02    7.07320000E-02 
   8.73771000E+01    2.40001000E-01 
   2.56789000E+01    5.94797000E-01 
   3.74004000E+00    2.80802000E-01 
SP   3    1.000000
   4.21175000E+01    1.13889000E-01   3.65114000E-02 
   9.62837000E+00    9.20811000E-01   2.37153000E-01 
   2.85332000E+00   -3.27447000E-03   8.19702000E-01 
SP   1    1.000000
   9.05661000E-01    1.00000000E+00   1.00000000E+00 
SP   1    1.000000
   2.55611000E-01    1.00000000E+00   1.00000000E+00 
SP   1    1.000000
   8.45000000E-02    1.00000000E+00   1.00000000E+00 
D    1    1.000000
   1.29200000E+00    1.00000000E+00 

7    0
S    6    1.000000
   4.56324000E+03    1.96665000E-03 
   6.82024000E+02    1.52306000E-02 
   1.54973000E+02    7.61269000E-02 
   4.44553000E+01    2.60801000E-01 
   1.30290000E+01    6.16462000E-01 
   1.82773000E+00    2.21006000E-01 
SP   3    1.000000
   2.09642000E+01    1.14660000E-01   4.02487000E-02 
   4.80331000E+00    9.19999000E-01   2.37594000E-01 
   1.45933000E+00   -3.03068000E-03   8.15854000E-01 
SP   1    1.000000
   4.83456000E-01    1.00000000E+00   1.00000000E+00 
SP   1    1.000000
   1.45585000E-01    1.00000000E+00   1.00000000E+00 
SP   1    1.000000
   4.38000000E-02    1.00000000E+00   1.00000000E+00 
D    1    1.000000
   6.26000000E-01    1.00000000E+00 

8    0
S    6    1.000000
   8.58850000E+03    1.89515000E-03 
   1.29723000E+03    1.43859000E-02 
   2.99296000E+02    7.07320000E-02 
   8.73771000E+01    2.40001000E-01 
   2.56789000E+01    5.94797000E-01 
   3.74004000E+00    2.80802000E-01 
SP   3    1.000000
   4.21175000E+01    1.13889000E-01   3.65114000E-02 
   9.62837000E+00    9.20811000E-01   2.37153000E-01 
   2.85332000E+00   -3.27447000E-03   8.19702000E-01 
SP   1    1.000000
   9.05661000E-01    1.00000000E+00   1.00000000E+00 
SP   1    1.000000
   2.55611000E-01    1.00000000E+00   1.00000000E+00 
SP   1    1.000000
   8.45000000E-02    1.00000000E+00   1.00000000E+00 
D    1    1.000000
   1.29200000E+00    1.00000000E+00 

9    0
S    6    1.000000
   6.29348000E+03    1.96979000E-03 
   9.49044000E+02    1.49613000E-02 
   2.18776000E+02    7.35006000E-02 
   6.36916000E+01    2.48937000E-01 
   1.88282000E+01    6.02460000E-01 
   2.72023000E+00    2.56202000E-01 
SP   3    1.000000
   3.06331000E+01    1.11906000E-01   3.83119000E-02 
   7.02614000E+00    9.21666000E-01   2.37403000E-01 
   2.11205000E+00   -2.56919000E-03   8.17592000E-01 
SP   1    1.000000
   6.84009000E-01    1.00000000E+00   1.00000000E+00 
SP   1    1.000000
   2.00878000E-01    1.00000000E+00   1.00000000E+00 
SP   1    1.000000
   6.39000000E-02    1.00000000E+00   1.00000000E+00 
D    1    1.000000
   9.13000000E-01    1.00000000E+00 

10    0
S    6    1.000000
   6.29348000E+03    1.96979000E-03 
   9.49044000E+02    1.49613000E-02 
   2.18776000E+02    7.35006000E-02 
   6.36916000E+01    2.48937000E-01 
   1.88282000E+01    6.02460000E-01 
   2.72023000E+00    2.56202000E-01 
SP   3    1.000000
   3.06331000E+01    1.11906000E-01   3.83119000E-02 
   7.02614000E+00    9.21666000E-01   2.37403000E-01 
   2.11205000E+00   -2.56919000E-03   8.17592000E-01 
SP   1    1.000000
   6.84009000E-01    1.00000000E+00   1.00000000E+00 
SP   1    1.000000
   2.00878000E-01    1.00000000E+00   1.00000000E+00 
SP   1    1.000000
   6.39000000E-02    1.00000000E+00   1.00000000E+00 
D    1    1.000000
   9.13000000E-01    1.00000000E+00 

11    0
S    6    1.000000
   4.56324000E+03    1.96665000E-03 
   6.82024000E+02    1.52306000E-02 
   1.54973000E+02    7.61269000E-02 
   4.44553000E+01    2.60801000E-01 
   1.30290000E+01    6.16462000E-01 
   1.82773000E+00    2.21006000E-01 
SP   3    1.000000
   2.09642000E+01    1.14660000E-01   4.02487000E-02 
   4.80331000E+00    9.19999000E-01   2.37594000E-01 
   1.45933000E+00   -3.03068000E-03   8.15854000E-01 
SP   1    1.000000
   4.83456000E-01    1.00000000E+00   1.00000000E+00 
SP   1    1.000000
   1.45585000E-01    1.00000000E+00   1.00000000E+00 
SP   1    1.000000
   4.38000000E-02    1.00000000E+00   1.00000000E+00 
D    1    1.000000
   6.26000000E-01    1.00000000E+00 

12    0
S    3    1.000000
   3.38650000E+01    2.54938000E-02 
   5.09479000E+00    1.90373000E-01 
   1.15879000E+00    8.52161000E-01 
S    1    1.000000
   3.25840000E-01    1.00000000E+00 
S    1    1.000000
   1.02741000E-01    1.00000000E+00 
S    1    1.000000
   3.60000000E-02    1.00000000E+00 
P    1    1.000000
   7.50000000E-01    1.00000000E+00 

[MO]
Sym=X
Ene= -0.009401
Spin=Alpha
Occup=1
     1   -4.545989874179e-05
     2   -8.067989219692e-05
     3    1.444413677815e-05
     4   -1.552240987135e-04
     5    5.226892460564e-16
     6    2.857783789106e-04
     7   -1.028980136218e-05
     8   -2.458457456713e-04
     9   -9.686703116298e-16
    10    1.391757577209e-04
    11   -7.278258505268e-05
    12   -8.236406556689e-04
    13    5.635173368841e-15
    14    1.456155607234e-03
    15    7.125508427720e-04
    16   -3.987434818555e-03
    17   -2.353345604603e-14
    18   -2.078568945425e-05
    19    8.830406071924e-16
    20    9.510972895453e-16
    21    5.398169014032e-05
    22   -5.709071602631e-06
    23   -4.573363905408e-05
    24   -2.120223381993e-04
    25   -1.194179141975e-03
    26   -2.284812252315e-03
    27    3.800013568146e-05
    28    3.216027328804e-05
    29   -6.454713059023e-16
    30    1.106401642784e-06
    31   -4.783615906306e-05
    32   -1.084111206700e-03
    33   -5.099793262202e-03
    34    2.175723155627e-05
    35    3.909732678832e-05
    36    9.115797855014e-16
    37   -1.837617548827e-05
    38    3.578777491595e-05
    39   -3.928093664295e-05
    40    5.559769861342e-05
    41   -1.140125784970e-05
    42   -1.848604987213e-05
    43    4.382875238837e-16
    44   -2.712070314793e-06
    45   -3.866327216465e-06
    46   -4.558003730836e-07
    47   -1.755546318342e-06
    48   -9.192903655141e-16
    49    7.199583068691e-05
    50   -3.316385784153e-05
    51   -2.088646204894e-05
    52    2.280817605299e-15
    53   -6.728107490211e-04
    54   -3.430120072661e-04
    55    9.830497503203e-05
    56   -1.878462346581e-15
    57   -2.499319840684e-04
    58   -3.720958153993e-04
    59   -7.897870258088e-04
    60   -8.693651174635e-15
    61   -1.890459482676e-05
    62   -3.188454148065e-16
    63    1.349467630670e-15
    64   -8.756777204496e-06
    65    3.986714758315e-05
    66   -1.943608174221e-05
    67   -2.751869655384e-05
    68   -3.030704945853e-05
    69   -1.019888236366e-05
    70    2.203470636727e-16
    71    6.913998697276e-05
    72   -4.327744893015e-05
    73   -1.523880302917e-05
    74    1.933945388133e-16
    75    1.557163733525e-04
    76   -1.163781350175e-05
    77   -3.657110258594e-05
    78   -2.407512528563e-15
    79   -4.025178729253e-04
    80   -2.703698949409e-04
    81    2.321069445048e-04
    82    2.597627236337e-15
    83   -3.900497706572e-06
    84   -3.315934278699e-16
    85    2.162437556722e-16
    86    1.091366892677e-06
    87   -5.441413570036e-06
    88   -9.807636290498e-06
    89   -1.028715816107e-04
    90    5.745296155930e-05
    91    6.897049825120e-07
    92   -1.084333472167e-15
    93    4.205504136121e-04
    94    3.344291477147e-04
    95    1.440041037119e-04
    96    1.599949354104e-15
    97   -1.244309121111e-04
    98    7.967089042389e-04
    99    5.027138625775e-04
   100    7.952222521633e-18
   101   -3.604271894549e-03
   102   -1.130485845562e-03
   103    6.270624515833e-04
   104   -1.226999719938e-16
   105   -6.243121312265e-05
   106    9.575000407980e-16
   107   -6.754338951304e-16
   108    8.137558333474e-05
   109    1.691013089856e-04
   110    5.514782190455e-01
   111    4.716717872607e-01
   112   -1.526291746643e-03
   113   -8.912771232976e-04
   114    1.695967149338e-15
   115    5.537304889340e-03
   116    6.230242008203e-04
   117    4.161757748241e-04
   118   -2.481951599363e-15
   119   -1.381612853644e-03
   120   -1.255417804526e-04
   121   -1.405249344683e-05
   122    3.471505120054e-15
   123    1.198341097409e-03
   124    1.413645808020e-04
   125    1.387717653596e-04
   126   -5.576006825456e-15
   127   -1.207633378375e-04
   128    8.867124989323e-16
   129    9.710791895120e-16
   130   -3.796573314147e-05
   131   -7.327035871228e-05
   132   -2.918450730491e-05
   133   -4.826315977026e-05
   134   -4.046604200342e-05
   135   -1.196006862275e-05
   136    6.339217957709e-16
   137    1.214406299876e-04
   138   -1.667073214315e-05
   139   -2.354343381667e-05
   140   -4.637841927928e-16
   141    8.355317478997e-04
   142   -1.736866375002e-04
   143   -4.211281518635e-04
   144    3.094216633056e-16
   145    1.334521369304e-03
   146   -7.003810559733e-04
   147   -2.759492636977e-04
   148    2.197347784326e-15
   149   -1.461218854471e-05
   150    5.993784460203e-16
   151   -6.866264091679e-16
   152    2.949247215503e-05
   153   -1.439295416031e-05
   154   -6.520605183714e-05
   155   -1.118877056637e-04
   156   -1.154558841883e-04
   157   -7.065711556115e-05
   158   -1.243401908546e-15
   159    3.545375703158e-04
   160   -1.810005601504e-04
   161   -1.086392297946e-04
   162    2.839987990762e-15
   163    1.191722034838e-03
   164   -1.953848594433e-04
   165   -1.077015652509e-04
   166   -7.282334879679e-15
   167    2.553298313216e-03
   168   -6.744769811472e-04
   169    1.920103782952e-04
   170    1.905566421967e-14
   171   -1.520050692707e-05
   172   -1.714983556152e-15
   173    1.428318740601e-16
   174   -2.155885459956e-05
   175   -2.751047783126e-05
   176   -2.783941151640e-05
   177   -4.767138852661e-05
   178    3.256928652085e-05
   179   -4.353767012693e-05
   180    6.112302993492e-16
   181    1.248197164611e-04
   182    6.043987161703e-05
   183    4.102666994650e-05
   184   -5.205817310760e-16
   185    1.342010277350e-03
   186   -6.148646421163e-04
   187    1.684046155589e-04
   188   -4.280724398815e-15
   189    4.491720841936e-03
   190    4.592769398909e-04
   191    2.426778127032e-03
   192    1.605174123297e-14
   193   -2.127692036245e-05
   194    9.457799409519e-16
   195    9.802298109154e-16
   196   -5.842820463834e-05
   197    5.455664271848e-05
   198   -2.664874128626e-05
   199    6.207361750497e-05
   200   -7.462622856755e-05
   201   -5.990898772067e-04
   202   -3.371461990090e-05
   203    2.267732749683e-05
   204   -7.790232633949e-16
Sym=X
Ene= 0.009401
Spin=Alpha
Occup=0
     1    1.209667031230e-15
     2    1.598473611906e-15
     3    5.438574281174e-15
     4    2.917075529591e-15
     5   -4.995438170094e-02
     6   -1.211514314451e-14
     7   -7.040079694407e-15
     8    1.562917420513e-14
     9   -8.377484580856e-02
    10    2.012078981748e-13
    11   -3.731880844771e-14
    12    1.897743055894e-13
    13   -9.799190000648e-02
    14    4.682129679637e-12
    15    1.101961281645e-12
    16    1.086704945863e-12
    17   -1.531470500210e-02
    18    1.866121494672e-15
    19   -4.029872464798e-02
    20    4.619179666375e-03
    21    5.323921625735e-16
    22   -3.070557968947e-15
    23   -4.414269108174e-15
    24   -9.154487792587e-14
    25   -2.617967759510e-13
    26   -1.428439389864e-13
    27   -7.176608214299e-15
    28   -1.750620355301e-15
    29    1.173541089281e-02
    30   -2.926265554959e-15
    31    5.158915976864e-14
    32    3.452956318174e-14
    33    4.056436386106e-13
    34    2.523646004456e-15
    35    3.503507776836e-15
    36   -3.908206145230e-03
    37    6.741079423652e-15
    38    2.973880153526e-14
    39    1.136026222893e-13
    40    2.640760236730e-13
    41    1.941874230936e-15
    42    2.777127916155e-15
    43   -2.725506645974e-05
    44    5.426429109604e-16
    45    1.026468844549e-15
    46    1.869102769894e-15
    47   -1.517953886382e-15
    48    1.039110497607e-02
    49   -1.580499483054e-14
    50   -2.021756538583e-15
    51   -6.366603780708e-15
    52    2.163355973223e-02
    53    9.330181133620e-14
    54    1.112040696753e-13
    55    5.169314732073e-14
    56   -1.078488813743e-02
    57   -5.381761915585e-13
    58   -1.757877207734e-13
    59   -3.891889106861e-14
    60   -2.181897247013e-02
    61   -2.553898371955e-15
    62    2.564462289220e-02
    63   -4.226335075986e-02
    64   -4.498385055837e-15
    65   -6.153153291004e-15
    66    4.238650714495e-16
    67   -1.140455726779e-15
    68   -5.369341025545e-16
    69   -3.625976242254e-15
    70   -1.091414607619e-01
    71    9.111443874673e-16
    72    5.156641119067e-15
    73    5.892307156148e-15
    74   -1.647454775168e-01
    75    1.692322300364e-14
    76   -2.042142239027e-14
    77   -4.959145623814e-14
    78   -1.662415670762e-01
    79    5.672806050810e-14
    80    5.296783722687e-14
    81    5.899755216585e-14
    82   -3.747315126784e-02
    83    5.388415352139e-16
    84   -6.545934800161e-03
    85    1.682892015808e-03
    86   -5.515124065124e-16
    87    1.826921439851e-15
    88   -5.691779045155e-16
    89    5.385209710473e-16
    90    4.546537810497e-15
    91   -3.534345274052e-15
    92   -2.292252112484e-02
    93    1.415322705907e-14
    94    9.389475015123e-16
    95   -2.192903032076e-15
    96   -4.630557250196e-02
    97   -2.124903828633e-13
    98    3.517443113027e-14
    99    2.909494110403e-14
   100   -1.136752734049e-02
   101    1.412846586992e-12
   102    6.324634829456e-14
   103   -4.528103527604e-13
   104    2.860930485231e-02
   105    5.662644232415e-15
   106    1.152642242867e-02
   107    2.828163646864e-02
   108   -3.818416968576e-15
   109   -1.563783597476e-17
   110    2.084012609540e-16
   111   -1.769108236223e-16
   112   -6.951748263655e-15
   113    5.311157006521e-15
   114    1.141857044465e-01
   115   -1.394445980848e-15
   116   -9.498892214923e-15
   117    5.265179401325e-15
   118    1.421418211044e-01
   119    1.507207166320e-14
   120    2.257804515319e-14
   121   -4.393497760363e-14
   122    1.113475174447e-01
   123   -2.357087185164e-14
   124   -1.191063444997e-13
   125    2.746418653458e-14
   126    1.110362403631e-02
   127   -8.621298711811e-16
   128   -3.743789801596e-03
   129   -1.056365956110e-03
   130    4.635481136903e-16
   131    1.282746940940e-15
   132    3.271155071582e-16
   133    1.215925918326e-15
   134    2.841282889829e-15
   135    3.131155238382e-15
   136    7.516874964323e-03
   137   -2.134848795326e-15
   138   -2.392135136811e-15
   139    2.391273296891e-14
   140    1.092021096460e-02
   141   -9.346789314144e-14
   142    4.753688127192e-14
   143   -1.258030038816e-13
   144    1.872865104658e-02
   145    5.406581561640e-13
   146   -6.730392647901e-14
   147   -3.189374324021e-13
   148    2.511522033119e-03
   149    6.294067521308e-16
   150   -1.382462414468e-03
   151   -2.643104716426e-04
   152   -2.279108650080e-15
   153   -1.219953233075e-15
   154    4.238319824229e-16
   155   -4.318837663111e-16
   156    2.664482897416e-15
   157    2.979400743654e-15
   158    1.816658324901e-01
   159   -1.961820756109e-15
   160    2.427093523199e-14
   161    7.187572634001e-15
   162    2.880159221547e-01
   163    4.352143375904e-14
   164   -2.405615499378e-13
   165   -4.639448946671e-14
   166    3.367009379514e-01
   167   -5.759956095594e-13
   168   -5.204774698345e-13
   169   -3.176571956894e-13
   170    8.617840584800e-02
   171   -2.989985693321e-15
   172    2.635761074902e-03
   173    7.330617771518e-03
   174    4.791310150386e-15
   175    2.446604327773e-15
   176    1.294791008597e-15
   177    2.287718056356e-16
   178    1.140610695122e-15
   179   -5.563015818104e-16
   180   -1.381957783402e-01
   181   -1.027709153456e-14
   182    2.275035858872e-14
   183    8.240018572576e-15
   184   -2.317555789883e-01
   185    2.123949882839e-14
   186    8.250871075438e-16
   187   -2.545992960379e-14
   188   -2.529856626779e-01
   189   -5.738993564167e-12
   190    1.128091285310e-12
   191   -1.020480113488e-13
   192   -3.060367021715e-02
   193   -8.410927279440e-15
   194    6.914881498189e-03
   195   -4.212259133770e-03
   196    1.083275309942e-15
   197   -1.851321751960e-15
   198    5.159296791799e-15
   199   -4.713701415150e-14
   200    1.189061338460e-13
   201   -3.778322216076e-13
   202    9.749924414382e-15
   203   -2.610382305426e-15
   204   -1.142611537000e-02
[5D]
