[Molden Format]
[Atoms] (Angs)
  C      1    6     -0.00714236     -1.70213747     -0.00000000
  H      2    1     -2.06882847     -1.44022412      0.00000000
  H      3    1     -0.12337987     -2.77567521      0.00000000
  H      4    1      0.04651892      1.98813947     -0.00000000
  C      5    6     -1.21953563      0.40211669      0.00000000
  O      6    8     -2.25921553      1.03043814      0.00000000
  C      7    6      1.28797806      0.34644937     -0.00000000
  O      8    8      2.31273661      1.00537216     -0.00000000
  N      9    7      0.03446295      0.97739857     -0.00000000
  N     10    7     -1.17287765     -0.98229824      0.00000000
  C     11    6      1.20107039     -1.10433419     -0.00000000
  H     12    1      2.11220096     -1.67699125     -0.00000000
[GTO]
1    0
S    6    1.000000
   4.56324000E+03    1.96665000E-03 
   6.82024000E+02    1.52306000E-02 
   1.54973000E+02    7.61269000E-02 
   4.44553000E+01    2.60801000E-01 
   1.30290000E+01    6.16462000E-01 
   1.82773000E+00    2.21006000E-01 
SP   3    1.000000
   2.09642000E+01    1.14660000E-01   4.02487000E-02 
   4.80331000E+00    9.19999000E-01   2.37594000E-01 
   1.45933000E+00   -3.03068000E-03   8.15854000E-01 
SP   1    1.000000
   4.83456000E-01    1.00000000E+00   1.00000000E+00 
SP   1    1.000000
   1.45585000E-01    1.00000000E+00   1.00000000E+00 
SP   1    1.000000
   4.38000000E-02    1.00000000E+00   1.00000000E+00 
D    1    1.000000
   6.26000000E-01    1.00000000E+00 

2    0
S    3    1.000000
   3.38650000E+01    2.54938000E-02 
   5.09479000E+00    1.90373000E-01 
   1.15879000E+00    8.52161000E-01 
S    1    1.000000
   3.25840000E-01    1.00000000E+00 
S    1    1.000000
   1.02741000E-01    1.00000000E+00 
S    1    1.000000
   3.60000000E-02    1.00000000E+00 
P    1    1.000000
   7.50000000E-01    1.00000000E+00 

3    0
S    3    1.000000
   3.38650000E+01    2.54938000E-02 
   5.09479000E+00    1.90373000E-01 
   1.15879000E+00    8.52161000E-01 
S    1    1.000000
   3.25840000E-01    1.00000000E+00 
S    1    1.000000
   1.02741000E-01    1.00000000E+00 
S    1    1.000000
   3.60000000E-02    1.00000000E+00 
P    1    1.000000
   7.50000000E-01    1.00000000E+00 

4    0
S    3    1.000000
   3.38650000E+01    2.54938000E-02 
   5.09479000E+00    1.90373000E-01 
   1.15879000E+00    8.52161000E-01 
S    1    1.000000
   3.25840000E-01    1.00000000E+00 
S    1    1.000000
   1.02741000E-01    1.00000000E+00 
S    1    1.000000
   3.60000000E-02    1.00000000E+00 
P    1    1.000000
   7.50000000E-01    1.00000000E+00 

5    0
S    6    1.000000
   4.56324000E+03    1.96665000E-03 
   6.82024000E+02    1.52306000E-02 
   1.54973000E+02    7.61269000E-02 
   4.44553000E+01    2.60801000E-01 
   1.30290000E+01    6.16462000E-01 
   1.82773000E+00    2.21006000E-01 
SP   3    1.000000
   2.09642000E+01    1.14660000E-01   4.02487000E-02 
   4.80331000E+00    9.19999000E-01   2.37594000E-01 
   1.45933000E+00   -3.03068000E-03   8.15854000E-01 
SP   1    1.000000
   4.83456000E-01    1.00000000E+00   1.00000000E+00 
SP   1    1.000000
   1.45585000E-01    1.00000000E+00   1.00000000E+00 
SP   1    1.000000
   4.38000000E-02    1.00000000E+00   1.00000000E+00 
D    1    1.000000
   6.26000000E-01    1.00000000E+00 

6    0
S    6    1.000000
   8.58850000E+03    1.89515000E-03 
   1.29723000E+03    1.43859000E-02 
   2.99296000E+02    7.07320000E-02 
   8.73771000E+01    2.40001000E-01 
   2.56789000E+01    5.94797000E-01 
   3.74004000E+00    2.80802000E-01 
SP   3    1.000000
   4.21175000E+01    1.13889000E-01   3.65114000E-02 
   9.62837000E+00    9.20811000E-01   2.37153000E-01 
   2.85332000E+00   -3.27447000E-03   8.19702000E-01 
SP   1    1.000000
   9.05661000E-01    1.00000000E+00   1.00000000E+00 
SP   1    1.000000
   2.55611000E-01    1.00000000E+00   1.00000000E+00 
SP   1    1.000000
   8.45000000E-02    1.00000000E+00   1.00000000E+00 
D    1    1.000000
   1.29200000E+00    1.00000000E+00 

7    0
S    6    1.000000
   4.56324000E+03    1.96665000E-03 
   6.82024000E+02    1.52306000E-02 
   1.54973000E+02    7.61269000E-02 
   4.44553000E+01    2.60801000E-01 
   1.30290000E+01    6.16462000E-01 
   1.82773000E+00    2.21006000E-01 
SP   3    1.000000
   2.09642000E+01    1.14660000E-01   4.02487000E-02 
   4.80331000E+00    9.19999000E-01   2.37594000E-01 
   1.45933000E+00   -3.03068000E-03   8.15854000E-01 
SP   1    1.000000
   4.83456000E-01    1.00000000E+00   1.00000000E+00 
SP   1    1.000000
   1.45585000E-01    1.00000000E+00   1.00000000E+00 
SP   1    1.000000
   4.38000000E-02    1.00000000E+00   1.00000000E+00 
D    1    1.000000
   6.26000000E-01    1.00000000E+00 

8    0
S    6    1.000000
   8.58850000E+03    1.89515000E-03 
   1.29723000E+03    1.43859000E-02 
   2.99296000E+02    7.07320000E-02 
   8.73771000E+01    2.40001000E-01 
   2.56789000E+01    5.94797000E-01 
   3.74004000E+00    2.80802000E-01 
SP   3    1.000000
   4.21175000E+01    1.13889000E-01   3.65114000E-02 
   9.62837000E+00    9.20811000E-01   2.37153000E-01 
   2.85332000E+00   -3.27447000E-03   8.19702000E-01 
SP   1    1.000000
   9.05661000E-01    1.00000000E+00   1.00000000E+00 
SP   1    1.000000
   2.55611000E-01    1.00000000E+00   1.00000000E+00 
SP   1    1.000000
   8.45000000E-02    1.00000000E+00   1.00000000E+00 
D    1    1.000000
   1.29200000E+00    1.00000000E+00 

9    0
S    6    1.000000
   6.29348000E+03    1.96979000E-03 
   9.49044000E+02    1.49613000E-02 
   2.18776000E+02    7.35006000E-02 
   6.36916000E+01    2.48937000E-01 
   1.88282000E+01    6.02460000E-01 
   2.72023000E+00    2.56202000E-01 
SP   3    1.000000
   3.06331000E+01    1.11906000E-01   3.83119000E-02 
   7.02614000E+00    9.21666000E-01   2.37403000E-01 
   2.11205000E+00   -2.56919000E-03   8.17592000E-01 
SP   1    1.000000
   6.84009000E-01    1.00000000E+00   1.00000000E+00 
SP   1    1.000000
   2.00878000E-01    1.00000000E+00   1.00000000E+00 
SP   1    1.000000
   6.39000000E-02    1.00000000E+00   1.00000000E+00 
D    1    1.000000
   9.13000000E-01    1.00000000E+00 

10    0
S    6    1.000000
   6.29348000E+03    1.96979000E-03 
   9.49044000E+02    1.49613000E-02 
   2.18776000E+02    7.35006000E-02 
   6.36916000E+01    2.48937000E-01 
   1.88282000E+01    6.02460000E-01 
   2.72023000E+00    2.56202000E-01 
SP   3    1.000000
   3.06331000E+01    1.11906000E-01   3.83119000E-02 
   7.02614000E+00    9.21666000E-01   2.37403000E-01 
   2.11205000E+00   -2.56919000E-03   8.17592000E-01 
SP   1    1.000000
   6.84009000E-01    1.00000000E+00   1.00000000E+00 
SP   1    1.000000
   2.00878000E-01    1.00000000E+00   1.00000000E+00 
SP   1    1.000000
   6.39000000E-02    1.00000000E+00   1.00000000E+00 
D    1    1.000000
   9.13000000E-01    1.00000000E+00 

11    0
S    6    1.000000
   4.56324000E+03    1.96665000E-03 
   6.82024000E+02    1.52306000E-02 
   1.54973000E+02    7.61269000E-02 
   4.44553000E+01    2.60801000E-01 
   1.30290000E+01    6.16462000E-01 
   1.82773000E+00    2.21006000E-01 
SP   3    1.000000
   2.09642000E+01    1.14660000E-01   4.02487000E-02 
   4.80331000E+00    9.19999000E-01   2.37594000E-01 
   1.45933000E+00   -3.03068000E-03   8.15854000E-01 
SP   1    1.000000
   4.83456000E-01    1.00000000E+00   1.00000000E+00 
SP   1    1.000000
   1.45585000E-01    1.00000000E+00   1.00000000E+00 
SP   1    1.000000
   4.38000000E-02    1.00000000E+00   1.00000000E+00 
D    1    1.000000
   6.26000000E-01    1.00000000E+00 

12    0
S    3    1.000000
   3.38650000E+01    2.54938000E-02 
   5.09479000E+00    1.90373000E-01 
   1.15879000E+00    8.52161000E-01 
S    1    1.000000
   3.25840000E-01    1.00000000E+00 
S    1    1.000000
   1.02741000E-01    1.00000000E+00 
S    1    1.000000
   3.60000000E-02    1.00000000E+00 
P    1    1.000000
   7.50000000E-01    1.00000000E+00 

[MO]
Sym=X
Ene= -0.003274
Spin=Alpha
Occup=1
     1   -3.677481063620e-07
     2    3.007229617621e-07
     3   -4.741360787290e-06
     4    4.899328800797e-06
     5   -3.204051844047e-16
     6   -3.125608257282e-06
     7    2.488452642455e-05
     8   -1.825444954393e-05
     9    1.595715091348e-15
    10   -2.291636712857e-04
    11    7.551122969234e-05
    12    3.416764533663e-05
    13   -1.415789576010e-15
    14    6.251285290675e-04
    15    6.307544203659e-04
    16    1.780477853028e-04
    17   -8.281201678027e-15
    18    1.646233339702e-06
    19    8.866035800938e-17
    20    1.165510843699e-16
    21    4.131761131380e-06
    22    5.270011179606e-06
    23    3.774566734896e-06
    24    5.029742939186e-05
    25    9.700303182256e-05
    26    2.730100846588e-04
    27    9.518488832496e-06
    28   -7.903337791568e-06
    29   -7.607743440760e-17
    30   -5.094945352977e-06
    31    3.907892311169e-05
    32    2.534941483026e-06
    33    9.822492022370e-05
    34   -1.743437685284e-06
    35    4.688205616328e-06
    36    6.802684538888e-16
    37    3.422154194733e-06
    38    5.523514986029e-05
    39    9.326312796223e-05
    40    3.445657568753e-04
    41    1.092896307874e-05
    42   -5.368951280868e-06
    43    8.456198918110e-16
    44    4.941154932543e-06
    45   -7.759086249588e-05
    46   -6.126229512530e-05
    47    3.748740311006e-05
    48   -9.147663607601e-16
    49    3.086490983360e-04
    50   -3.615646541655e-04
    51    2.179356838661e-04
    52    4.113484170755e-15
    53   -5.417995018909e-05
    54   -4.916974449193e-04
    55    3.039315171044e-04
    56   -4.677536356395e-15
    57    4.365108760579e-04
    58    6.140265530097e-04
    59   -4.354006079701e-04
    60   -6.613869400317e-15
    61   -5.721858777835e-05
    62   -8.631546534943e-16
    63   -6.145645818957e-16
    64    9.298985349501e-05
    65   -1.788865064720e-04
    66    5.514791288653e-01
    67    4.716764895592e-01
    68    1.564708576406e-03
    69   -9.584190885515e-04
    70    2.091561207648e-16
    71    5.533659669361e-03
    72   -6.341291074994e-04
    73    3.885295714507e-04
    74   -3.040398601626e-16
    75   -1.338646297202e-03
    76    1.334419840855e-04
    77   -8.860266681348e-05
    78   -1.029482731382e-15
    79    1.426797939418e-03
    80    5.501000638545e-05
    81   -9.644899761502e-06
    82    2.121292434833e-15
    83   -8.739978879690e-05
    84   -2.973313133582e-16
    85    2.727980073002e-16
    86   -3.883375592673e-05
    87    6.944690719789e-05
    88   -4.358419993286e-07
    89    7.544550457123e-07
    90   -4.250167742867e-06
    91    1.744446258108e-06
    92   -2.300583474770e-16
    93   -4.849720500603e-06
    94    1.841479383974e-05
    95   -1.081791422132e-05
    96    2.635279592226e-15
    97   -1.999501342383e-04
    98    9.815089626338e-05
    99   -4.663404536487e-05
   100   -3.687738813957e-15
   101    7.574476701484e-04
   102    1.176385181710e-04
   103   -6.879200812511e-04
   104   -1.785564561528e-14
   105    3.069878058395e-06
   106   -1.870221527604e-17
   107    2.924554422004e-17
   108   -7.949554705549e-06
   109    2.105352058557e-06
   110   -1.317568726123e-04
   111   -1.118747125182e-04
   112    6.387625841870e-07
   113   -3.309635936103e-07
   114    1.470253296886e-15
   115   -8.955992463417e-06
   116    1.049083986028e-06
   117    1.489801106589e-06
   118   -1.172011663469e-15
   119    3.726835535890e-05
   120   -1.350916625981e-05
   121   -6.693937061738e-06
   122   -1.841887987231e-15
   123   -1.875936947391e-04
   124    8.565101805230e-05
   125    7.261229165062e-05
   126    7.141101175711e-15
   127    3.027871769393e-07
   128    4.772828720973e-16
   129    1.085860822085e-15
   130    7.650723121197e-07
   131    3.758922753577e-07
   132    2.759695616720e-07
   133    1.617137435105e-06
   134    1.106034137254e-05
   135   -1.196204471509e-06
   136    4.833119972169e-16
   137   -2.767089809158e-05
   138   -3.160046544835e-05
   139    5.983732681411e-06
   140    1.595991626358e-17
   141    3.012741353109e-04
   142    4.741485653046e-05
   143   -2.529942988134e-04
   144   -2.119398635775e-15
   145    1.249102477916e-05
   146    5.482959784051e-04
   147   -8.538438013418e-05
   148    1.226323292545e-14
   149   -7.176575852673e-06
   150    2.171039334135e-16
   151   -7.268416427056e-16
   152    2.286806607869e-05
   153    6.930924650258e-06
   154    3.700141898262e-07
   155    1.491299249832e-06
   156    5.234509408860e-06
   157   -9.635847082114e-06
   158   -6.629120093889e-16
   159   -2.596170725671e-05
   160   -1.587985000123e-05
   161    2.554590297459e-05
   162    8.851233675651e-17
   163    2.736709665129e-04
   164    2.299822673433e-04
   165    7.112925903070e-05
   166   -8.664654867433e-16
   167   -3.035513100118e-05
   168    2.947978971867e-04
   169   -3.663092002959e-04
   170    7.686470933521e-15
   171   -7.679695608358e-06
   172   -2.547334631654e-16
   173    2.742550155667e-16
   174   -1.831179991352e-05
   175   -1.263780744249e-05
   176    1.274915748049e-07
   177   -6.319092897198e-07
   178    1.257293523992e-06
   179   -7.544825378750e-07
   180   -1.373951641157e-15
   181    1.226596116780e-05
   182   -6.488380195637e-06
   183    6.715342805611e-06
   184    5.101775617569e-16
   185   -6.192812348686e-05
   186    4.888811992515e-05
   187   -2.874669316191e-05
   188   -7.997820057974e-16
   189   -2.955709316824e-03
   190    4.559145432243e-04
   191   -2.997056035778e-04
   192    1.526140111182e-14
   193    5.187043928290e-06
   194   -2.868998200959e-17
   195   -3.652803419001e-16
   196    2.516650462774e-08
   197   -3.112822920761e-06
   198    1.322052730573e-06
   199   -8.534728495958e-06
   200   -2.100457448347e-05
   201   -1.796313051981e-04
   202   -4.785520581618e-07
   203    4.223564424415e-07
   204    8.144450116985e-16
Sym=X
Ene= 0.003274
Spin=Alpha
Occup=0
     1   -5.762757048702e-03
     2   -1.002603935878e-02
     3    2.253996542368e-02
     4    1.171804901386e-02
     5    4.975107804475e-16
     6    2.704170444595e-02
     7    4.451439922623e-02
     8    2.660183061122e-02
     9    2.004961735011e-15
    10    1.246927471725e-01
    11    6.447605307897e-02
    12    7.545100067360e-02
    13    1.112448050967e-14
    14    8.608300742642e-01
    15    1.713566220427e-01
    16    1.912959746545e-01
    17   -1.441526745959e-14
    18    1.462513389115e-03
    19   -1.579617832311e-15
    20   -2.794215574847e-15
    21    9.061060012768e-03
    22   -4.445978530346e-03
    23    1.123354686414e-04
    24   -3.423853009042e-03
    25   -3.362363131412e-02
    26   -9.330517864285e-03
    27   -1.517155147550e-04
    28   -5.722645322186e-04
    29   -3.004907050534e-15
    30   -1.439498510797e-02
    31   -1.966405690164e-02
    32   -1.644959066780e-02
    33    5.051990319796e-02
    34    1.872685769701e-03
    35    2.746691796555e-03
    36   -1.579665170117e-15
    37   -7.515703929372e-03
    38   -2.225507972777e-02
    39   -1.068523404486e-02
    40    5.503227455474e-02
    41    3.110770273558e-04
    42    8.483286481439e-04
    43   -6.432932531341e-16
    44    9.062115223967e-03
    45    1.580600250807e-02
    46   -2.807626711720e-02
    47   -9.354929984718e-03
    48    4.405541976930e-16
    49   -4.747026813809e-02
    50   -4.716940201288e-02
    51   -1.935153671714e-02
    52    6.315111588961e-15
    53   -9.868738827257e-02
    54   -2.943069156781e-02
    55   -1.536885776447e-02
    56   -1.814439152657e-14
    57   -1.499632103899e-01
    58   -2.822281740137e-02
    59    3.312281058443e-03
    60   -1.792766691400e-15
    61   -2.890458207583e-04
    62    3.118272005223e-15
    63   -1.676665234412e-15
    64   -2.145926631001e-03
    65   -1.399426466851e-02
    66   -2.833595710588e-03
    67   -4.960072013051e-03
    68    4.549261963030e-02
    69    3.116441573606e-02
    70    7.104889852455e-16
    71    1.716748402472e-02
    72    5.646366012921e-02
    73    3.992781844989e-02
    74    5.686808937621e-15
    75    1.522349281688e-02
    76    4.813789310136e-02
    77    4.007650272224e-02
    78    7.806397667043e-16
    79   -1.963661655797e-03
    80    4.417796060816e-03
    81    3.952535480891e-03
    82   -2.195823577705e-14
    83   -2.252617016771e-04
    84   -2.628137275161e-15
    85   -2.643072049064e-15
    86    1.162260883553e-03
    87   -7.966886616883e-04
    88    6.231287159881e-03
    89    1.099519841999e-02
    90    4.892053959183e-03
    91    2.457252473526e-02
    92    7.356376942746e-16
    93   -2.955372780180e-02
    94    7.803458319243e-03
    95    5.269489945818e-02
    96    2.452192393449e-16
    97   -3.834133790141e-02
    98    7.827546937885e-02
    99   -9.158956539041e-02
   100    3.838493863997e-16
   101    5.541103055795e-01
   102    6.545063032177e-03
   103   -2.110614983919e-01
   104   -1.233612838741e-15
   105   -3.326040963183e-03
   106   -1.179215217448e-16
   107   -4.356203628478e-16
   108    7.211822221717e-02
   109   -3.584072111806e-02
   110   -8.760332684462e-04
   111   -1.564983612278e-03
   112    1.310437597292e-01
   113   -2.191286946263e-01
   114   -4.948682603603e-15
   115    6.623354789716e-03
   116    1.990897983583e-01
   117   -3.321484393985e-01
   118   -1.539186703204e-14
   119   -1.238310727344e-03
   120    2.055105613088e-01
   121   -3.296136859550e-01
   122    9.837998752657e-15
   123   -4.183441348218e-03
   124    2.441281505362e-02
   125   -4.909577162678e-02
   126    8.959505739840e-15
   127    1.795457766040e-04
   128    3.299509967075e-15
   129   -3.652185291449e-15
   130   -1.173789289575e-02
   131    6.593945305943e-03
   132   -2.083180254662e-02
   133   -3.518636107819e-02
   134    7.565706233391e-02
   135   -2.850776315264e-02
   136    1.557260506875e-15
   137    1.009449477425e-01
   138    1.090943005644e-01
   139   -3.631810556074e-02
   140   -3.775455118278e-16
   141    2.338307019676e-01
   142    1.215437486928e-01
   143   -6.628279226968e-02
   144    2.030625629520e-14
   145    2.417687863737e-01
   146   -5.995308820996e-02
   147   -8.568891844989e-02
   148   -1.127185803272e-15
   149    3.474921976842e-03
   150   -8.032472334949e-16
   151   -7.267907822532e-16
   152   -3.534178370434e-03
   153    2.479623069418e-03
   154   -3.915358783163e-03
   155   -6.677710233057e-03
   156    1.955776976015e-03
   157    4.228617752554e-03
   158   -2.767878065382e-15
   159    2.004945887768e-02
   160    2.570007089238e-03
   161    6.817132847216e-03
   162   -7.071017881721e-15
   163    3.137732496678e-02
   164   -1.179593630132e-02
   165    4.938048395757e-03
   166   -4.842811173830e-15
   167   -6.241713387039e-02
   168   -4.427873620341e-02
   169   -6.297280071267e-02
   170    3.071324159845e-14
   171    5.120065295214e-04
   172   -6.695519262380e-16
   173    1.012970286585e-15
   174    2.748316182834e-03
   175   -3.047277883870e-04
   176    1.882511640010e-02
   177    3.118538652154e-02
   178   -1.333834723816e-02
   179   -7.383942473749e-02
   180   -2.173836435778e-16
   181   -7.934351310811e-02
   182   -2.333615713791e-02
   183   -9.084206624202e-02
   184   -7.173126253139e-15
   185   -2.938610635639e-01
   186    4.268562413158e-02
   187   -1.468601869246e-01
   188   -7.424457121200e-15
   189   -1.388616217622e+00
   190    2.773149772729e-01
   191   -1.262664882868e-01
   192   -2.949981587667e-15
   193    3.021644809940e-03
   194   -1.815885554763e-15
   195    7.112875645974e-16
   196   -3.484230898669e-03
   197    1.218468067066e-03
   198    4.875220530550e-03
   199    1.539550940595e-02
   200   -7.453716854263e-03
   201   -8.226033228321e-02
   202   -3.021789717655e-03
   203    1.216260069502e-03
   204    1.553176400566e-15
[5D]
