[Molden Format]
[Atoms] (Angs)
  C      1    6     -0.00714236     -1.70213747     -0.00000000
  H      2    1     -2.06882847     -1.44022412      0.00000000
  H      3    1     -0.12337987     -2.77567521      0.00000000
  H      4    1      0.04651892      1.98813947     -0.00000000
  C      5    6     -1.21953563      0.40211669      0.00000000
  O      6    8     -2.25921553      1.03043814      0.00000000
  C      7    6      1.28797806      0.34644937     -0.00000000
  O      8    8      2.31273661      1.00537216     -0.00000000
  N      9    7      0.03446295      0.97739857     -0.00000000
  N     10    7     -1.17287765     -0.98229824      0.00000000
  C     11    6      1.20107039     -1.10433419     -0.00000000
  H     12    1      2.11220096     -1.67699125     -0.00000000
[GTO]
1    0
S    6    1.000000
   4.56324000E+03    1.96665000E-03 
   6.82024000E+02    1.52306000E-02 
   1.54973000E+02    7.61269000E-02 
   4.44553000E+01    2.60801000E-01 
   1.30290000E+01    6.16462000E-01 
   1.82773000E+00    2.21006000E-01 
SP   3    1.000000
   2.09642000E+01    1.14660000E-01   4.02487000E-02 
   4.80331000E+00    9.19999000E-01   2.37594000E-01 
   1.45933000E+00   -3.03068000E-03   8.15854000E-01 
SP   1    1.000000
   4.83456000E-01    1.00000000E+00   1.00000000E+00 
SP   1    1.000000
   1.45585000E-01    1.00000000E+00   1.00000000E+00 
SP   1    1.000000
   4.38000000E-02    1.00000000E+00   1.00000000E+00 
D    1    1.000000
   6.26000000E-01    1.00000000E+00 

2    0
S    3    1.000000
   3.38650000E+01    2.54938000E-02 
   5.09479000E+00    1.90373000E-01 
   1.15879000E+00    8.52161000E-01 
S    1    1.000000
   3.25840000E-01    1.00000000E+00 
S    1    1.000000
   1.02741000E-01    1.00000000E+00 
S    1    1.000000
   3.60000000E-02    1.00000000E+00 
P    1    1.000000
   7.50000000E-01    1.00000000E+00 

3    0
S    3    1.000000
   3.38650000E+01    2.54938000E-02 
   5.09479000E+00    1.90373000E-01 
   1.15879000E+00    8.52161000E-01 
S    1    1.000000
   3.25840000E-01    1.00000000E+00 
S    1    1.000000
   1.02741000E-01    1.00000000E+00 
S    1    1.000000
   3.60000000E-02    1.00000000E+00 
P    1    1.000000
   7.50000000E-01    1.00000000E+00 

4    0
S    3    1.000000
   3.38650000E+01    2.54938000E-02 
   5.09479000E+00    1.90373000E-01 
   1.15879000E+00    8.52161000E-01 
S    1    1.000000
   3.25840000E-01    1.00000000E+00 
S    1    1.000000
   1.02741000E-01    1.00000000E+00 
S    1    1.000000
   3.60000000E-02    1.00000000E+00 
P    1    1.000000
   7.50000000E-01    1.00000000E+00 

5    0
S    6    1.000000
   4.56324000E+03    1.96665000E-03 
   6.82024000E+02    1.52306000E-02 
   1.54973000E+02    7.61269000E-02 
   4.44553000E+01    2.60801000E-01 
   1.30290000E+01    6.16462000E-01 
   1.82773000E+00    2.21006000E-01 
SP   3    1.000000
   2.09642000E+01    1.14660000E-01   4.02487000E-02 
   4.80331000E+00    9.19999000E-01   2.37594000E-01 
   1.45933000E+00   -3.03068000E-03   8.15854000E-01 
SP   1    1.000000
   4.83456000E-01    1.00000000E+00   1.00000000E+00 
SP   1    1.000000
   1.45585000E-01    1.00000000E+00   1.00000000E+00 
SP   1    1.000000
   4.38000000E-02    1.00000000E+00   1.00000000E+00 
D    1    1.000000
   6.26000000E-01    1.00000000E+00 

6    0
S    6    1.000000
   8.58850000E+03    1.89515000E-03 
   1.29723000E+03    1.43859000E-02 
   2.99296000E+02    7.07320000E-02 
   8.73771000E+01    2.40001000E-01 
   2.56789000E+01    5.94797000E-01 
   3.74004000E+00    2.80802000E-01 
SP   3    1.000000
   4.21175000E+01    1.13889000E-01   3.65114000E-02 
   9.62837000E+00    9.20811000E-01   2.37153000E-01 
   2.85332000E+00   -3.27447000E-03   8.19702000E-01 
SP   1    1.000000
   9.05661000E-01    1.00000000E+00   1.00000000E+00 
SP   1    1.000000
   2.55611000E-01    1.00000000E+00   1.00000000E+00 
SP   1    1.000000
   8.45000000E-02    1.00000000E+00   1.00000000E+00 
D    1    1.000000
   1.29200000E+00    1.00000000E+00 

7    0
S    6    1.000000
   4.56324000E+03    1.96665000E-03 
   6.82024000E+02    1.52306000E-02 
   1.54973000E+02    7.61269000E-02 
   4.44553000E+01    2.60801000E-01 
   1.30290000E+01    6.16462000E-01 
   1.82773000E+00    2.21006000E-01 
SP   3    1.000000
   2.09642000E+01    1.14660000E-01   4.02487000E-02 
   4.80331000E+00    9.19999000E-01   2.37594000E-01 
   1.45933000E+00   -3.03068000E-03   8.15854000E-01 
SP   1    1.000000
   4.83456000E-01    1.00000000E+00   1.00000000E+00 
SP   1    1.000000
   1.45585000E-01    1.00000000E+00   1.00000000E+00 
SP   1    1.000000
   4.38000000E-02    1.00000000E+00   1.00000000E+00 
D    1    1.000000
   6.26000000E-01    1.00000000E+00 

8    0
S    6    1.000000
   8.58850000E+03    1.89515000E-03 
   1.29723000E+03    1.43859000E-02 
   2.99296000E+02    7.07320000E-02 
   8.73771000E+01    2.40001000E-01 
   2.56789000E+01    5.94797000E-01 
   3.74004000E+00    2.80802000E-01 
SP   3    1.000000
   4.21175000E+01    1.13889000E-01   3.65114000E-02 
   9.62837000E+00    9.20811000E-01   2.37153000E-01 
   2.85332000E+00   -3.27447000E-03   8.19702000E-01 
SP   1    1.000000
   9.05661000E-01    1.00000000E+00   1.00000000E+00 
SP   1    1.000000
   2.55611000E-01    1.00000000E+00   1.00000000E+00 
SP   1    1.000000
   8.45000000E-02    1.00000000E+00   1.00000000E+00 
D    1    1.000000
   1.29200000E+00    1.00000000E+00 

9    0
S    6    1.000000
   6.29348000E+03    1.96979000E-03 
   9.49044000E+02    1.49613000E-02 
   2.18776000E+02    7.35006000E-02 
   6.36916000E+01    2.48937000E-01 
   1.88282000E+01    6.02460000E-01 
   2.72023000E+00    2.56202000E-01 
SP   3    1.000000
   3.06331000E+01    1.11906000E-01   3.83119000E-02 
   7.02614000E+00    9.21666000E-01   2.37403000E-01 
   2.11205000E+00   -2.56919000E-03   8.17592000E-01 
SP   1    1.000000
   6.84009000E-01    1.00000000E+00   1.00000000E+00 
SP   1    1.000000
   2.00878000E-01    1.00000000E+00   1.00000000E+00 
SP   1    1.000000
   6.39000000E-02    1.00000000E+00   1.00000000E+00 
D    1    1.000000
   9.13000000E-01    1.00000000E+00 

10    0
S    6    1.000000
   6.29348000E+03    1.96979000E-03 
   9.49044000E+02    1.49613000E-02 
   2.18776000E+02    7.35006000E-02 
   6.36916000E+01    2.48937000E-01 
   1.88282000E+01    6.02460000E-01 
   2.72023000E+00    2.56202000E-01 
SP   3    1.000000
   3.06331000E+01    1.11906000E-01   3.83119000E-02 
   7.02614000E+00    9.21666000E-01   2.37403000E-01 
   2.11205000E+00   -2.56919000E-03   8.17592000E-01 
SP   1    1.000000
   6.84009000E-01    1.00000000E+00   1.00000000E+00 
SP   1    1.000000
   2.00878000E-01    1.00000000E+00   1.00000000E+00 
SP   1    1.000000
   6.39000000E-02    1.00000000E+00   1.00000000E+00 
D    1    1.000000
   9.13000000E-01    1.00000000E+00 

11    0
S    6    1.000000
   4.56324000E+03    1.96665000E-03 
   6.82024000E+02    1.52306000E-02 
   1.54973000E+02    7.61269000E-02 
   4.44553000E+01    2.60801000E-01 
   1.30290000E+01    6.16462000E-01 
   1.82773000E+00    2.21006000E-01 
SP   3    1.000000
   2.09642000E+01    1.14660000E-01   4.02487000E-02 
   4.80331000E+00    9.19999000E-01   2.37594000E-01 
   1.45933000E+00   -3.03068000E-03   8.15854000E-01 
SP   1    1.000000
   4.83456000E-01    1.00000000E+00   1.00000000E+00 
SP   1    1.000000
   1.45585000E-01    1.00000000E+00   1.00000000E+00 
SP   1    1.000000
   4.38000000E-02    1.00000000E+00   1.00000000E+00 
D    1    1.000000
   6.26000000E-01    1.00000000E+00 

12    0
S    3    1.000000
   3.38650000E+01    2.54938000E-02 
   5.09479000E+00    1.90373000E-01 
   1.15879000E+00    8.52161000E-01 
S    1    1.000000
   3.25840000E-01    1.00000000E+00 
S    1    1.000000
   1.02741000E-01    1.00000000E+00 
S    1    1.000000
   3.60000000E-02    1.00000000E+00 
P    1    1.000000
   7.50000000E-01    1.00000000E+00 

[MO]
Sym=X
Ene= -0.090865
Spin=Alpha
Occup=1
     1   -5.204337115293e-06
     2   -8.099529623877e-06
     3   -7.655578397924e-06
     4   -1.130753155326e-05
     5   -5.365729333642e-16
     6    1.967175607471e-05
     7    3.960129310272e-06
     8   -1.839008239204e-05
     9    9.165200818755e-16
    10    6.828059750481e-04
    11    7.308681971309e-05
    12    2.049205749434e-04
    13   -5.647445693163e-15
    14    1.384349828842e-03
    15   -5.318111991871e-04
    16    5.090978032798e-04
    17    2.211044979797e-14
    18    3.615939129133e-07
    19   -8.742808007593e-16
    20   -9.387692926183e-16
    21    5.678716506429e-06
    22   -3.849252172301e-06
    23    1.379621780065e-06
    24    4.754143908242e-07
    25    2.934632955115e-04
    26    4.856722353840e-04
    27   -1.437433086921e-06
    28   -4.144581992841e-06
    29    6.447444959980e-16
    30    1.789430869952e-06
    31   -1.265275470487e-05
    32    1.555032569509e-05
    33   -3.972081747637e-04
    34   -8.840405757859e-06
    35    3.453469513928e-06
    36   -9.243597040298e-16
    37   -2.415238885679e-06
    38   -7.581216406408e-05
    39   -3.794562422612e-05
    40   -8.803437009813e-05
    41    1.114466208095e-05
    42    7.302609199674e-06
    43   -4.400088991290e-16
    44   -1.925508349954e-06
    45   -6.327068644535e-06
    46   -5.378585772547e-06
    47   -6.521367769472e-06
    48    9.285352759413e-16
    49    2.455433262800e-05
    50    3.371469916193e-05
    51   -8.515099820077e-06
    52   -2.247235245960e-15
    53    3.313878905469e-04
    54    1.386868043417e-04
    55    4.477428892690e-07
    56    1.927882743870e-15
    57    2.614078775244e-04
    58    3.565181195829e-05
    59    2.863964122625e-04
    60    9.689052683410e-15
    61   -1.144136535319e-06
    62    3.314533050125e-16
    63   -1.362410139178e-15
    64    5.891446149669e-06
    65   -3.333229193176e-06
    66   -9.223027914021e-06
    67   -6.850703726940e-06
    68    3.804347049567e-06
    69    6.199038786803e-06
    70   -2.427189554991e-16
    71   -4.328132483777e-06
    72    1.052446251008e-05
    73    8.583728786656e-06
    74   -2.300056997779e-16
    75   -5.975745182544e-05
    76   -1.522107009624e-05
    77    1.284979826728e-05
    78    2.385033449899e-15
    79    2.349548475504e-04
    80    1.621523964048e-04
    81   -4.979026880775e-05
    82   -2.985311168458e-15
    83    1.048294469178e-07
    84    3.381498471651e-16
    85   -2.096067855219e-16
    86   -4.684709983545e-07
    87    5.418133292424e-07
    88   -3.987443831583e-06
    89    7.808747694999e-05
    90   -5.634594643730e-05
    91   -4.134078417085e-05
    92    1.060344319332e-15
    93   -3.165804499646e-04
    94   -3.423756288771e-04
    95   -2.062720580755e-04
    96   -1.628204954919e-15
    97    1.666458137625e-04
    98   -5.724299104477e-04
    99   -4.691597385367e-04
   100   -2.481851329503e-16
   101    2.920555953133e-03
   102    4.402298838776e-04
   103   -6.082688346016e-04
   104   -1.256061912339e-15
   105    5.128324324038e-05
   106   -9.484728399028e-16
   107    6.691600164887e-16
   108   -8.608264673430e-05
   109   -1.883207061774e-04
   110   -5.514851931561e-01
   111   -4.716821027674e-01
   112    1.533904337831e-03
   113    9.192675952410e-04
   114   -1.675815336765e-15
   115   -5.505208950935e-03
   116   -6.113170134715e-04
   117   -3.735847314825e-04
   118    2.531525432094e-15
   119    1.363840585923e-03
   120    1.250740877143e-04
   121    6.681238212726e-05
   122   -3.502929498966e-15
   123   -1.294089874094e-03
   124    3.736975299758e-05
   125    2.311807217960e-05
   126    6.108397786540e-15
   127    1.188974079820e-04
   128   -8.890102337829e-16
   129   -9.588254630588e-16
   130    3.732357910955e-05
   131    7.511876121410e-05
   132    1.519012253651e-07
   133   -1.959342684690e-06
   134    2.046593631124e-05
   135   -2.202802233261e-06
   136   -6.276149001265e-16
   137    3.625520286538e-05
   138   -1.452064671886e-05
   139   -3.780824969978e-06
   140    4.809918733869e-16
   141   -3.507514473106e-04
   142    1.039915561701e-04
   143    2.887781156710e-04
   144   -2.398299749706e-16
   145   -1.225678584867e-04
   146    7.064157304986e-04
   147    5.895079059903e-05
   148   -2.368028566132e-15
   149    8.964836109655e-06
   150   -6.038655173384e-16
   151    6.836423231281e-16
   152   -2.125589366115e-05
   153    1.308369413458e-05
   154    7.124856663530e-06
   155    1.154002394385e-05
   156    1.177682081721e-05
   157    7.506086284346e-06
   158    1.235520561338e-15
   159   -2.769201336504e-05
   160    1.959215474320e-05
   161    1.350781150148e-05
   162   -2.840535876974e-15
   163   -2.708894982406e-04
   164   -4.657733025926e-05
   165    7.540299945997e-06
   166    7.112194146246e-15
   167   -5.440971390286e-04
   168    3.258823717178e-04
   169    1.959512334286e-04
   170   -1.851705499866e-14
   171   -5.605531114653e-07
   172    1.719446642031e-15
   173   -1.369337365557e-16
   174   -1.799145628486e-06
   175    6.130496416848e-07
   176   -7.292392356691e-06
   177   -1.284094033374e-05
   178    2.196332942981e-05
   179    6.652517875758e-06
   180   -5.911831750232e-16
   181    6.156439017484e-05
   182    2.457559760219e-05
   183   -8.851991060239e-05
   184    5.943579903067e-16
   185   -5.561227161323e-04
   186    6.481659618001e-04
   187   -1.718879316961e-04
   188    4.366101594065e-15
   189   -2.183820647434e-03
   190    8.346770567078e-04
   191   -1.465651229974e-03
   192   -1.447927853985e-14
   193    5.148479376746e-06
   194   -9.574422040689e-16
   195   -9.803245585698e-16
   196    3.011078605430e-05
   197   -1.964131956256e-05
   198    7.191640355858e-06
   199   -1.254935169995e-04
   200   -3.494004306039e-04
   201   -1.476698772600e-03
   202    1.538514822936e-05
   203   -6.203761434930e-06
   204    7.760685222641e-16
Sym=X
Ene= 0.090865
Spin=Alpha
Occup=0
     1    8.959589810194e-16
     2    1.269412552698e-15
     3    4.733704294115e-15
     4    5.341473387144e-15
     5   -1.063765097883e-01
     6   -6.902171522369e-15
     7   -7.411227288345e-15
     8    2.373509297829e-14
     9   -1.783577627470e-01
    10    2.306631559022e-13
    11   -2.731028818563e-14
    12    1.132088987566e-13
    13   -1.777365127801e-01
    14    6.946694710159e-13
    15   -1.008999632235e-13
    16    3.564006860522e-13
    17   -2.699748424218e-02
    18   -2.276386618487e-15
    19   -3.186511119953e-02
    20   -6.377583382890e-03
    21   -2.444537344410e-15
    22   -6.474324169580e-15
    23   -1.623489759909e-15
    24   -1.083964741991e-13
    25   -3.871701429439e-14
    26   -2.117359815321e-13
    27   -3.851809205716e-15
    28    1.489646561874e-15
    29    1.314229202592e-02
    30   -9.844830212723e-16
    31    3.792335995947e-14
    32   -4.278258301663e-14
    33    1.265401919353e-14
    34    1.023284101039e-15
    35    1.604559847091e-16
    36   -7.651559315540e-03
    37    6.729424717834e-16
    38    1.045348988673e-13
    39   -2.313667063371e-13
    40    3.577517233846e-13
    41    2.020317169420e-15
    42   -6.908395633031e-15
    43   -1.267510304373e-03
    44    2.211386655275e-16
    45    8.796745605095e-16
    46    1.119937742993e-15
    47   -7.343793821989e-16
    48    1.972291845447e-02
    49   -1.289810847259e-14
    50   -6.875324755810e-15
    51   -9.727453311960e-15
    52    3.850275894613e-02
    53    2.543800443705e-14
    54    3.870667599581e-14
    55    1.562273064989e-13
    56    3.704153024211e-03
    57   -2.937469791892e-13
    58   -2.292862730479e-13
    59   -2.978483027524e-13
    60   -2.326630445927e-02
    61   -2.824546346110e-15
    62    9.990944336651e-03
    63   -2.626642100207e-02
    64   -7.424217624055e-15
    65   -5.580648304233e-15
    66   -7.898061196623e-17
    67   -1.258556681466e-15
    68   -5.508488316484e-16
    69   -3.513335545295e-15
    70   -5.578990899246e-02
    71    2.197984523981e-15
    72    9.181601251731e-15
    73    1.267379186694e-14
    74   -8.423267150253e-02
    75    6.753764444898e-15
    76   -3.815882161917e-14
    77   -6.713720519830e-14
    78   -8.894460441148e-02
    79   -1.304756875634e-13
    80   -3.900748291929e-15
    81    1.502322474067e-13
    82   -1.798068003667e-02
    83   -2.926420683344e-18
    84   -2.248188556211e-03
    85    7.901140081048e-04
    86   -1.177189370077e-15
    87    1.091442246874e-15
    88   -1.289256737959e-16
    89    1.495496918884e-15
    90    2.652063415095e-15
    91   -2.943289139191e-15
    92   -9.374181934549e-03
    93    9.174767482956e-15
    94    4.827432729459e-15
    95   -1.383816483221e-15
    96   -1.914994466097e-02
    97   -2.860613592427e-13
    98    3.864437047837e-14
    99    1.143311537362e-13
   100   -7.594874715782e-03
   101    2.532717165502e-12
   102    6.062877932024e-13
   103   -1.091824056861e-12
   104    2.970246227515e-02
   105    4.732541736656e-15
   106    2.372457420344e-02
   107    3.523948795800e-02
   108   -8.542361717472e-15
   109   -8.380191483852e-16
   110   -1.934313007301e-17
   111   -7.333020244944e-17
   112   -6.851585159800e-15
   113    1.091194147434e-14
   114    1.683335252522e-01
   115   -1.444368931080e-15
   116   -7.351520464220e-15
   117    1.072752462271e-14
   118    2.108313468163e-01
   119    8.286265412593e-15
   120    3.916853647073e-14
   121   -5.541723233582e-14
   122    1.652302067820e-01
   123   -1.146239776360e-13
   124   -1.438199187142e-13
   125    2.884280834892e-15
   126    3.258320294778e-02
   127   -2.582138885546e-16
   128   -7.260134855355e-03
   129   -2.786443939972e-03
   130    2.955588440375e-16
   131    9.067397888146e-16
   132    2.076585433287e-16
   133    8.823211369261e-16
   134    2.672216743951e-15
   135    4.499926040699e-15
   136   -1.258629936645e-02
   137   -5.447906463849e-15
   138   -3.985198406162e-15
   139    2.662702608679e-14
   140   -1.951443378872e-02
   141   -8.604200256393e-14
   142    1.916508183829e-14
   143   -2.104025093105e-13
   144   -2.045002010467e-02
   145    9.912444627086e-13
   146    3.316404345356e-14
   147    1.653752788876e-13
   148   -6.085301157502e-03
   149    5.858570299222e-15
   150   -1.607621801583e-03
   151    6.340362135043e-04
   152    1.403824546000e-15
   153    8.742919555487e-16
   154    2.783178731268e-16
   155   -9.303401989999e-16
   156    3.416312768418e-15
   157    3.764378940473e-15
   158    1.216480531934e-01
   159   -2.318877312029e-16
   160    2.845636742543e-14
   161    7.307372655856e-16
   162    1.910634143472e-01
   163    9.154087901081e-14
   164   -2.457342669457e-13
   165    2.557454057808e-15
   166    2.444769638789e-01
   167   -5.075096887310e-13
   168   -1.627262899497e-13
   169    4.992800901441e-14
   170    8.544368974288e-02
   171   -1.871057156056e-15
   172   -6.761252212345e-03
   173    7.433152060514e-03
   174    3.161243566901e-15
   175    3.641155575677e-15
   176    1.975520688984e-15
   177    7.113337768571e-16
   178    2.148643023560e-15
   179    1.570303053346e-15
   180   -1.599947565326e-01
   181   -9.131023101463e-15
   182    1.329197559114e-14
   183    8.584073374695e-15
   184   -2.667852142524e-01
   185    3.810997097937e-14
   186   -1.260330564518e-14
   187    7.087814962796e-14
   188   -2.580999297893e-01
   189   -3.190096947328e-12
   190   -3.920305275402e-13
   191   -1.062326848631e-12
   192   -4.358465983898e-02
   193   -6.155999769964e-15
   194    1.605361403441e-02
   195   -3.727996667019e-03
   196    9.439470407751e-16
   197    1.501344634327e-15
   198    5.301964502070e-15
   199   -2.491394110701e-14
   200    2.066458263558e-13
   201   -7.605122500199e-14
   202    3.756112913213e-15
   203   -1.627732191044e-16
   204   -1.135455588828e-02
[5D]
