[Molden Format]
[Atoms] (Angs)
  C      1    6     -0.00714236     -1.70213747     -0.00000000
  H      2    1     -2.06882847     -1.44022412      0.00000000
  H      3    1     -0.12337987     -2.77567521      0.00000000
  H      4    1      0.04651892      1.98813947     -0.00000000
  C      5    6     -1.21953563      0.40211669      0.00000000
  O      6    8     -2.25921553      1.03043814      0.00000000
  C      7    6      1.28797806      0.34644937     -0.00000000
  O      8    8      2.31273661      1.00537216     -0.00000000
  N      9    7      0.03446295      0.97739857     -0.00000000
  N     10    7     -1.17287765     -0.98229824      0.00000000
  C     11    6      1.20107039     -1.10433419     -0.00000000
  H     12    1      2.11220096     -1.67699125     -0.00000000
[GTO]
1    0
S    6    1.000000
   4.56324000E+03    1.96665000E-03 
   6.82024000E+02    1.52306000E-02 
   1.54973000E+02    7.61269000E-02 
   4.44553000E+01    2.60801000E-01 
   1.30290000E+01    6.16462000E-01 
   1.82773000E+00    2.21006000E-01 
SP   3    1.000000
   2.09642000E+01    1.14660000E-01   4.02487000E-02 
   4.80331000E+00    9.19999000E-01   2.37594000E-01 
   1.45933000E+00   -3.03068000E-03   8.15854000E-01 
SP   1    1.000000
   4.83456000E-01    1.00000000E+00   1.00000000E+00 
SP   1    1.000000
   1.45585000E-01    1.00000000E+00   1.00000000E+00 
SP   1    1.000000
   4.38000000E-02    1.00000000E+00   1.00000000E+00 
D    1    1.000000
   6.26000000E-01    1.00000000E+00 

2    0
S    3    1.000000
   3.38650000E+01    2.54938000E-02 
   5.09479000E+00    1.90373000E-01 
   1.15879000E+00    8.52161000E-01 
S    1    1.000000
   3.25840000E-01    1.00000000E+00 
S    1    1.000000
   1.02741000E-01    1.00000000E+00 
S    1    1.000000
   3.60000000E-02    1.00000000E+00 
P    1    1.000000
   7.50000000E-01    1.00000000E+00 

3    0
S    3    1.000000
   3.38650000E+01    2.54938000E-02 
   5.09479000E+00    1.90373000E-01 
   1.15879000E+00    8.52161000E-01 
S    1    1.000000
   3.25840000E-01    1.00000000E+00 
S    1    1.000000
   1.02741000E-01    1.00000000E+00 
S    1    1.000000
   3.60000000E-02    1.00000000E+00 
P    1    1.000000
   7.50000000E-01    1.00000000E+00 

4    0
S    3    1.000000
   3.38650000E+01    2.54938000E-02 
   5.09479000E+00    1.90373000E-01 
   1.15879000E+00    8.52161000E-01 
S    1    1.000000
   3.25840000E-01    1.00000000E+00 
S    1    1.000000
   1.02741000E-01    1.00000000E+00 
S    1    1.000000
   3.60000000E-02    1.00000000E+00 
P    1    1.000000
   7.50000000E-01    1.00000000E+00 

5    0
S    6    1.000000
   4.56324000E+03    1.96665000E-03 
   6.82024000E+02    1.52306000E-02 
   1.54973000E+02    7.61269000E-02 
   4.44553000E+01    2.60801000E-01 
   1.30290000E+01    6.16462000E-01 
   1.82773000E+00    2.21006000E-01 
SP   3    1.000000
   2.09642000E+01    1.14660000E-01   4.02487000E-02 
   4.80331000E+00    9.19999000E-01   2.37594000E-01 
   1.45933000E+00   -3.03068000E-03   8.15854000E-01 
SP   1    1.000000
   4.83456000E-01    1.00000000E+00   1.00000000E+00 
SP   1    1.000000
   1.45585000E-01    1.00000000E+00   1.00000000E+00 
SP   1    1.000000
   4.38000000E-02    1.00000000E+00   1.00000000E+00 
D    1    1.000000
   6.26000000E-01    1.00000000E+00 

6    0
S    6    1.000000
   8.58850000E+03    1.89515000E-03 
   1.29723000E+03    1.43859000E-02 
   2.99296000E+02    7.07320000E-02 
   8.73771000E+01    2.40001000E-01 
   2.56789000E+01    5.94797000E-01 
   3.74004000E+00    2.80802000E-01 
SP   3    1.000000
   4.21175000E+01    1.13889000E-01   3.65114000E-02 
   9.62837000E+00    9.20811000E-01   2.37153000E-01 
   2.85332000E+00   -3.27447000E-03   8.19702000E-01 
SP   1    1.000000
   9.05661000E-01    1.00000000E+00   1.00000000E+00 
SP   1    1.000000
   2.55611000E-01    1.00000000E+00   1.00000000E+00 
SP   1    1.000000
   8.45000000E-02    1.00000000E+00   1.00000000E+00 
D    1    1.000000
   1.29200000E+00    1.00000000E+00 

7    0
S    6    1.000000
   4.56324000E+03    1.96665000E-03 
   6.82024000E+02    1.52306000E-02 
   1.54973000E+02    7.61269000E-02 
   4.44553000E+01    2.60801000E-01 
   1.30290000E+01    6.16462000E-01 
   1.82773000E+00    2.21006000E-01 
SP   3    1.000000
   2.09642000E+01    1.14660000E-01   4.02487000E-02 
   4.80331000E+00    9.19999000E-01   2.37594000E-01 
   1.45933000E+00   -3.03068000E-03   8.15854000E-01 
SP   1    1.000000
   4.83456000E-01    1.00000000E+00   1.00000000E+00 
SP   1    1.000000
   1.45585000E-01    1.00000000E+00   1.00000000E+00 
SP   1    1.000000
   4.38000000E-02    1.00000000E+00   1.00000000E+00 
D    1    1.000000
   6.26000000E-01    1.00000000E+00 

8    0
S    6    1.000000
   8.58850000E+03    1.89515000E-03 
   1.29723000E+03    1.43859000E-02 
   2.99296000E+02    7.07320000E-02 
   8.73771000E+01    2.40001000E-01 
   2.56789000E+01    5.94797000E-01 
   3.74004000E+00    2.80802000E-01 
SP   3    1.000000
   4.21175000E+01    1.13889000E-01   3.65114000E-02 
   9.62837000E+00    9.20811000E-01   2.37153000E-01 
   2.85332000E+00   -3.27447000E-03   8.19702000E-01 
SP   1    1.000000
   9.05661000E-01    1.00000000E+00   1.00000000E+00 
SP   1    1.000000
   2.55611000E-01    1.00000000E+00   1.00000000E+00 
SP   1    1.000000
   8.45000000E-02    1.00000000E+00   1.00000000E+00 
D    1    1.000000
   1.29200000E+00    1.00000000E+00 

9    0
S    6    1.000000
   6.29348000E+03    1.96979000E-03 
   9.49044000E+02    1.49613000E-02 
   2.18776000E+02    7.35006000E-02 
   6.36916000E+01    2.48937000E-01 
   1.88282000E+01    6.02460000E-01 
   2.72023000E+00    2.56202000E-01 
SP   3    1.000000
   3.06331000E+01    1.11906000E-01   3.83119000E-02 
   7.02614000E+00    9.21666000E-01   2.37403000E-01 
   2.11205000E+00   -2.56919000E-03   8.17592000E-01 
SP   1    1.000000
   6.84009000E-01    1.00000000E+00   1.00000000E+00 
SP   1    1.000000
   2.00878000E-01    1.00000000E+00   1.00000000E+00 
SP   1    1.000000
   6.39000000E-02    1.00000000E+00   1.00000000E+00 
D    1    1.000000
   9.13000000E-01    1.00000000E+00 

10    0
S    6    1.000000
   6.29348000E+03    1.96979000E-03 
   9.49044000E+02    1.49613000E-02 
   2.18776000E+02    7.35006000E-02 
   6.36916000E+01    2.48937000E-01 
   1.88282000E+01    6.02460000E-01 
   2.72023000E+00    2.56202000E-01 
SP   3    1.000000
   3.06331000E+01    1.11906000E-01   3.83119000E-02 
   7.02614000E+00    9.21666000E-01   2.37403000E-01 
   2.11205000E+00   -2.56919000E-03   8.17592000E-01 
SP   1    1.000000
   6.84009000E-01    1.00000000E+00   1.00000000E+00 
SP   1    1.000000
   2.00878000E-01    1.00000000E+00   1.00000000E+00 
SP   1    1.000000
   6.39000000E-02    1.00000000E+00   1.00000000E+00 
D    1    1.000000
   9.13000000E-01    1.00000000E+00 

11    0
S    6    1.000000
   4.56324000E+03    1.96665000E-03 
   6.82024000E+02    1.52306000E-02 
   1.54973000E+02    7.61269000E-02 
   4.44553000E+01    2.60801000E-01 
   1.30290000E+01    6.16462000E-01 
   1.82773000E+00    2.21006000E-01 
SP   3    1.000000
   2.09642000E+01    1.14660000E-01   4.02487000E-02 
   4.80331000E+00    9.19999000E-01   2.37594000E-01 
   1.45933000E+00   -3.03068000E-03   8.15854000E-01 
SP   1    1.000000
   4.83456000E-01    1.00000000E+00   1.00000000E+00 
SP   1    1.000000
   1.45585000E-01    1.00000000E+00   1.00000000E+00 
SP   1    1.000000
   4.38000000E-02    1.00000000E+00   1.00000000E+00 
D    1    1.000000
   6.26000000E-01    1.00000000E+00 

12    0
S    3    1.000000
   3.38650000E+01    2.54938000E-02 
   5.09479000E+00    1.90373000E-01 
   1.15879000E+00    8.52161000E-01 
S    1    1.000000
   3.25840000E-01    1.00000000E+00 
S    1    1.000000
   1.02741000E-01    1.00000000E+00 
S    1    1.000000
   3.60000000E-02    1.00000000E+00 
P    1    1.000000
   7.50000000E-01    1.00000000E+00 

[MO]
Sym=X
Ene= -0.031275
Spin=Alpha
Occup=1
     1   -9.765333857400e-06
     2   -1.610793617822e-05
     3   -1.311697904495e-05
     4   -1.400498828386e-05
     5   -3.213713582113e-16
     6    5.125216943136e-05
     7    1.304054601025e-05
     8   -4.789272663609e-05
     9    1.594444388102e-15
    10   -1.263962827869e-04
    11   -4.022640596239e-05
    12   -6.205571692852e-05
    13   -1.422727974753e-15
    14    3.275194089231e-03
    15    2.477140046120e-04
    16   -8.937358799697e-06
    17   -7.795778190594e-15
    18    4.165575396897e-06
    19    9.340591238322e-17
    20    1.134037555981e-16
    21    6.966914408913e-06
    22    6.601436282524e-06
    23    6.931662637865e-06
    24    6.455283476257e-05
    25    5.822287804341e-04
    26    1.329825345270e-03
    27    1.080828198733e-07
    28   -1.395673436532e-05
    29   -8.140851053258e-17
    30   -6.472338604729e-06
    31    2.361025495017e-05
    32   -2.066427633216e-04
    33   -1.189207958878e-03
    34   -7.373483960676e-06
    35    1.194684908460e-05
    36    6.814145577422e-16
    37    3.032650376322e-06
    38    5.288706009267e-05
    39    2.170146527179e-04
    40    3.586023251859e-04
    41    1.207046372385e-05
    42   -4.240975573798e-06
    43    8.444405726025e-16
    44    1.115824604068e-07
    45   -8.613409004375e-05
    46   -5.816674729278e-05
    47    2.609992995186e-05
    48   -8.840783916813e-16
    49    3.332178894826e-04
    50   -3.579581654967e-04
    51    1.965727795121e-04
    52    4.168276256267e-15
    53   -1.031365358903e-05
    54   -5.091096915885e-04
    55    3.300106979780e-04
    56   -4.552189874695e-15
    57    4.494602988772e-04
    58    6.665577198370e-04
    59   -2.423477704968e-04
    60   -6.934927006886e-15
    61   -5.045268202161e-05
    62   -8.577363327249e-16
    63   -6.134442726390e-16
    64    9.093600738569e-05
    65   -1.855693824148e-04
    66    5.514837233987e-01
    67    4.716845608553e-01
    68    1.573019372647e-03
    69   -9.471518656343e-04
    70    1.845746470540e-16
    71    5.507499239740e-03
    72   -6.220981645591e-04
    73    4.060733782166e-04
    74   -3.350393405476e-16
    75   -1.401357369246e-03
    76    1.376607520051e-04
    77   -6.423200678123e-05
    78   -1.117444720368e-15
    79    1.389945285020e-03
    80    9.853216867083e-05
    81   -1.889844005820e-05
    82    2.273151485624e-15
    83   -8.644911673708e-05
    84   -2.978131874181e-16
    85    2.715753930241e-16
    86   -3.899678260476e-05
    87    7.044450348906e-05
    88    1.884931654835e-06
    89    4.817956239991e-06
    90   -1.569121088280e-06
    91    7.833681936106e-06
    92   -2.388999178834e-16
    93   -1.410812765300e-05
    94    2.070448116413e-05
    95   -1.883816070580e-06
    96    2.617148653681e-15
    97   -2.611305092774e-04
    98    2.045927086392e-04
    99    2.124997212089e-05
   100   -3.726630598362e-15
   101    2.100509890419e-03
   102   -2.885941180277e-04
   103   -9.202179289879e-04
   104   -1.745750948363e-14
   105    8.894802571982e-07
   106   -1.441071875423e-17
   107    3.025356218322e-17
   108   -7.572583855204e-06
   109   -5.736007070260e-06
   110   -1.072977225585e-04
   111   -9.204479109757e-05
   112    8.180151494567e-06
   113   -3.028881639200e-06
   114    1.490191540625e-15
   115   -5.773432324315e-07
   116    1.133412962435e-05
   117   -2.606963913883e-06
   118   -1.154270766930e-15
   119    2.998731374110e-05
   120    4.491888516763e-06
   121   -9.597990254516e-06
   122   -1.756704125949e-15
   123   -3.715095637218e-04
   124    1.747693981847e-04
   125    1.422552657848e-04
   126    6.937319093990e-15
   127   -3.331990141312e-07
   128    4.779170586066e-16
   129    1.083583296559e-15
   130    5.723658908799e-07
   131    6.327513481194e-07
   132    1.568216815838e-06
   133    3.917786410917e-06
   134    2.890250540039e-05
   135   -4.063558458892e-06
   136    4.720027085920e-16
   137   -3.705274027364e-05
   138   -4.924782771231e-06
   139    2.017408768405e-06
   140    9.001819520421e-18
   141    3.194975109020e-04
   142    1.061946530467e-04
   143   -2.792933018495e-04
   144   -2.193618704158e-15
   145   -4.009860007474e-04
   146    7.441256877985e-04
   147   -2.345285453781e-04
   148    1.241751777906e-14
   149   -7.032819986367e-06
   150    2.104100780642e-16
   151   -7.274535876278e-16
   152    2.319400888516e-05
   153    9.581579458303e-06
   154    1.415151471112e-05
   155    2.518936226130e-05
   156    2.908675220102e-05
   157    5.109569190436e-06
   158   -6.646263176567e-16
   159   -9.828077622393e-05
   160    2.018612046547e-05
   161    4.770889671021e-05
   162    8.152677271957e-17
   163    4.365385678761e-05
   164    2.822491644101e-04
   165    1.213116405097e-04
   166   -8.815392983435e-16
   167   -6.396712349489e-04
   168    8.067942188840e-04
   169    8.799215991351e-06
   170    7.485956761102e-15
   171   -6.816113561682e-06
   172   -2.540047364488e-16
   173    2.793444424978e-16
   174   -2.021272079153e-05
   175   -1.212122510680e-05
   176   -1.089086356484e-05
   177   -1.963973370232e-05
   178    3.431762973522e-05
   179   -1.724394619440e-05
   180   -1.357249796397e-15
   181    6.775038885216e-05
   182    3.900306206082e-05
   183   -1.938959584494e-05
   184    5.256042338333e-16
   185    2.876253297241e-04
   186    1.102537022786e-04
   187   -5.134129982645e-05
   188   -6.963849566482e-16
   189   -3.980080102412e-03
   190    2.095515096555e-03
   191   -8.394968147781e-04
   192    1.462115032718e-14
   193    3.161298630254e-06
   194   -2.920364951487e-17
   195   -3.677149065819e-16
   196    1.136044168050e-06
   197    3.588483641358e-06
   198    7.422830063632e-06
   199    3.979375186629e-06
   200   -3.009945373003e-04
   201   -2.175341838978e-03
   202   -7.088688296754e-06
   203    9.685021009866e-06
   204    8.142970566067e-16
Sym=X
Ene= 0.031275
Spin=Alpha
Occup=0
     1    2.003906377639e-15
     2    3.661258237761e-15
     3    3.543653559816e-16
     4   -2.989900569565e-16
     5   -9.491556856792e-02
     6   -2.866457198871e-14
     7    8.973808882546e-15
     8   -1.027046761135e-14
     9   -1.575926211972e-01
    10   -1.584862531199e-13
    11    2.554453450205e-14
    12   -1.216462931906e-13
    13   -1.770644836017e-01
    14   -2.824988726919e-13
    15   -2.406439648254e-13
    16   -5.474691576078e-14
    17   -1.485629939567e-02
    18    3.375106548417e-15
    19   -3.283903520532e-02
    20   -4.450191362097e-03
    21    6.240915992136e-15
    22    6.779749909800e-16
    23   -1.003340013276e-15
    24    1.299777029894e-13
    25    3.467393315626e-14
    26    5.017074313830e-14
    27    8.036540551082e-15
    28    5.150724961814e-15
    29    1.443511268191e-02
    30   -2.776933508362e-15
    31    9.445743171897e-15
    32   -1.878482764331e-13
    33   -3.049428680276e-13
    34    3.054260196153e-15
    35    1.417696166975e-16
    36   -6.337528619727e-03
    37   -5.018265258707e-16
    38   -1.051348477306e-13
    39   -1.820412518412e-13
    40    1.696382492488e-13
    41   -2.197940496123e-15
    42    7.712737761974e-15
    43   -1.500887158766e-03
    44   -4.133593946257e-16
    45   -9.387144825962e-16
    46   -6.813830882593e-16
    47   -1.242406713513e-15
    48    2.361632854573e-02
    49    8.347425050004e-15
    50   -7.633809402492e-15
    51    5.003822139439e-15
    52    4.844399184542e-02
    53    7.266823489636e-14
    54   -2.721460288069e-13
    55   -2.559059532977e-13
    56    3.757426464444e-03
    57   -5.147695789813e-13
    58   -1.882903257729e-13
    59   -3.983490249156e-14
    60   -3.197649811556e-02
    61   -3.227898917711e-15
    62    1.003190007387e-02
    63   -3.637153418798e-02
    64   -4.250665343348e-15
    65   -4.491494711706e-15
    66    8.977435283782e-17
    67   -1.519164599836e-15
    68   -8.001594489942e-16
    69   -2.248765239999e-15
    70   -1.209410474187e-01
    71    1.168663539953e-14
    72   -1.570643124385e-16
    73   -3.270690563410e-16
    74   -1.518183071198e-01
    75   -6.346496981685e-14
    76   -1.950671710849e-15
    77    4.721145088528e-14
    78   -1.212166333247e-01
    79   -1.422256805839e-13
    80   -3.458344455552e-14
    81    5.468231269067e-14
    82   -1.257848256244e-02
    83    8.109919891613e-16
    84   -4.494171534401e-03
    85    1.215182477559e-03
    86   -4.956172200231e-18
    87    8.385904458170e-16
    88   -2.984907803930e-16
    89    1.593360205735e-15
    90    2.008673648941e-15
    91   -2.949842889921e-15
    92    1.428393863219e-03
    93   -1.590024272139e-14
    94   -1.747133211421e-14
    95    6.740386987907e-15
    96    1.232583810597e-03
    97    1.487069905228e-13
    98   -7.927515276203e-14
    99   -3.332563336339e-14
   100    1.453028740642e-02
   101    2.315344934699e-12
   102    3.745573862019e-13
   103   -9.050465610036e-13
   104    3.192968667034e-02
   105   -1.836532459168e-15
   106    2.459122411278e-02
   107    3.143214461380e-02
   108    1.128027278757e-15
   109    7.361475722841e-15
   110   -6.537570705914e-16
   111   -1.521133107185e-15
   112   -2.991780021745e-15
   113    5.194991287889e-15
   114    1.017755901545e-01
   115    1.007037162538e-14
   116   -2.279382610896e-15
   117    1.198873327837e-14
   118    1.538412326414e-01
   119   -8.675296082547e-16
   120    1.634956142601e-14
   121   -3.960301484626e-14
   122    1.531662512678e-01
   123   -2.943652804232e-14
   124   -7.436011767814e-14
   125    7.452790404314e-14
   126    3.683691769139e-02
   127   -7.436240316479e-16
   128   -6.104293125025e-03
   129   -2.603690709021e-03
   130    3.080834939830e-16
   131    5.120876723704e-16
   132    3.539975931993e-16
   133    1.775298002519e-15
   134   -1.230776964167e-15
   135   -6.207048963065e-15
   136   -1.651031316419e-02
   137   -2.451358945498e-14
   138   -3.572625669421e-15
   139   -3.475409592804e-14
   140   -2.499147063594e-02
   141    2.283781590204e-13
   142   -1.291011655497e-13
   143    2.026849688326e-13
   144   -3.133347460548e-02
   145    4.489269227095e-13
   146   -1.958317491138e-13
   147    2.212493353580e-13
   148   -1.475676746352e-02
   149   -5.203985235978e-16
   150   -4.996592273627e-04
   151    1.949693799364e-04
   152   -4.906587115018e-15
   153   -1.733022566543e-16
   154   -1.483523502530e-15
   155   -4.196451291054e-15
   156   -3.218665048587e-15
   157   -3.548255714826e-16
   158    1.520067314151e-01
   159    2.788095494456e-14
   160   -3.204330428734e-14
   161   -4.630415596532e-15
   162    2.399017105598e-01
   163   -1.573396446419e-13
   164    2.907702675499e-13
   165   -4.093290159282e-14
   166    2.967515748482e-01
   167   -1.444795601126e-14
   168    7.752858246840e-14
   169    6.906328393413e-14
   170    8.262405339526e-02
   171    2.913469828931e-15
   172   -7.306387812318e-03
   173    9.999432225392e-03
   174   -3.664379014908e-15
   175   -3.147286885156e-15
   176    1.263699821627e-15
   177   -3.099886496930e-16
   178   -1.305289098379e-15
   179   -1.156003517372e-15
   180   -1.490316535531e-01
   181    1.090468993733e-15
   182   -3.288761159562e-15
   183   -1.269839300870e-14
   184   -2.461454217017e-01
   185   -4.334763941553e-14
   186   -4.233586084390e-14
   187    4.867383921384e-14
   188   -2.464487662455e-01
   189   -1.557929048097e-12
   190   -5.884448014495e-13
   191   -8.854964493159e-13
   192   -5.554619851237e-02
   193   -8.762401819040e-15
   194    1.616146303936e-02
   195   -1.362970403105e-04
   196   -8.186206310087e-16
   197   -5.195699070040e-15
   198    3.321120389922e-15
   199   -1.156463547963e-14
   200    1.040405878445e-13
   201    2.718893797361e-14
   202    9.458418780173e-16
   203   -2.757523261149e-15
   204   -1.132281362607e-02
[5D]
